 Entering Gaussian System, Link 0=/opt/gaussian/g16/C01/g16/g16
 Input=r0_NBO.com
 Output=r0_NBO.log
 Initial command:
 /opt/gaussian/g16/C01/g16/l1.exe "/home/javialra/scratch/Gau-3947976.inp" -scrdir="/home/javialra/scratch/"
 Entering Link 1 = /opt/gaussian/g16/C01/g16/l1.exe PID=   3947977.
  
 Copyright (c) 1988-2019, Gaussian, Inc.  All Rights Reserved.
  
 This is part of the Gaussian(R) 16 program.  It is based on
 the Gaussian(R) 09 system (copyright 2009, Gaussian, Inc.),
 the Gaussian(R) 03 system (copyright 2003, Gaussian, Inc.),
 the Gaussian(R) 98 system (copyright 1998, Gaussian, Inc.),
 the Gaussian(R) 94 system (copyright 1995, Gaussian, Inc.),
 the Gaussian 92(TM) system (copyright 1992, Gaussian, Inc.),
 the Gaussian 90(TM) system (copyright 1990, Gaussian, Inc.),
 the Gaussian 88(TM) system (copyright 1988, Gaussian, Inc.),
 the Gaussian 86(TM) system (copyright 1986, Carnegie Mellon
 University), and the Gaussian 82(TM) system (copyright 1983,
 Carnegie Mellon University). Gaussian is a federally registered
 trademark of Gaussian, Inc.
  
 This software contains proprietary and confidential information,
 including trade secrets, belonging to Gaussian, Inc.
  
 This software is provided under written license and may be
 used, copied, transmitted, or stored only in accord with that
 written license.
  
 The following legend is applicable only to US Government
 contracts under FAR:
  
                    RESTRICTED RIGHTS LEGEND
  
 Use, reproduction and disclosure by the US Government is
 subject to restrictions as set forth in subparagraphs (a)
 and (c) of the Commercial Computer Software - Restricted
 Rights clause in FAR 52.227-19.
  
 Gaussian, Inc.
 340 Quinnipiac St., Bldg. 40, Wallingford CT 06492
  
  
 ---------------------------------------------------------------
 Warning -- This program may not be used in any manner that
 competes with the business of Gaussian, Inc. or will provide
 assistance to any competitor of Gaussian, Inc.  The licensee
 of this program is prohibited from giving any competitor of
 Gaussian, Inc. access to this program.  By using this program,
 the user acknowledges that Gaussian, Inc. is engaged in the
 business of creating and licensing software in the field of
 computational chemistry and represents and warrants to the
 licensee that it is not a competitor of Gaussian, Inc. and that
 it will not use this program in any manner prohibited above.
 ---------------------------------------------------------------
  

 Cite this work as:
 Gaussian 16, Revision C.01,
 M. J. Frisch, G. W. Trucks, H. B. Schlegel, G. E. Scuseria, 
 M. A. Robb, J. R. Cheeseman, G. Scalmani, V. Barone, 
 G. A. Petersson, H. Nakatsuji, X. Li, M. Caricato, A. V. Marenich, 
 J. Bloino, B. G. Janesko, R. Gomperts, B. Mennucci, H. P. Hratchian, 
 J. V. Ortiz, A. F. Izmaylov, J. L. Sonnenberg, D. Williams-Young, 
 F. Ding, F. Lipparini, F. Egidi, J. Goings, B. Peng, A. Petrone, 
 T. Henderson, D. Ranasinghe, V. G. Zakrzewski, J. Gao, N. Rega, 
 G. Zheng, W. Liang, M. Hada, M. Ehara, K. Toyota, R. Fukuda, 
 J. Hasegawa, M. Ishida, T. Nakajima, Y. Honda, O. Kitao, H. Nakai, 
 T. Vreven, K. Throssell, J. A. Montgomery, Jr., J. E. Peralta, 
 F. Ogliaro, M. J. Bearpark, J. J. Heyd, E. N. Brothers, K. N. Kudin, 
 V. N. Staroverov, T. A. Keith, R. Kobayashi, J. Normand, 
 K. Raghavachari, A. P. Rendell, J. C. Burant, S. S. Iyengar, 
 J. Tomasi, M. Cossi, J. M. Millam, M. Klene, C. Adamo, R. Cammi, 
 J. W. Ochterski, R. L. Martin, K. Morokuma, O. Farkas, 
 J. B. Foresman, and D. J. Fox, Gaussian, Inc., Wallingford CT, 2019.
 
 ******************************************
 Gaussian 16:  ES64L-G16RevC.01  3-Jul-2019
                13-Sep-2024 
 ******************************************
 %nprocshared=64
 Will use up to   64 processors via shared memory.
 %mem=64000MB
 --------------------------
 # pbe1pbe def2svp pop=NBO7
 --------------------------
 1/38=1,172=1/1;
 2/12=2,17=6,18=5,40=1/2;
 3/5=43,7=101,11=2,25=1,30=1,74=-13/1,2,3;
 4//1;
 5/5=2,38=5/2;
 6/7=2,8=2,9=2,10=2,28=1,40=1,113=1,114=1,124=3103/1,12;
 99/5=1,9=1/99;
 ---------
 NBO input
 ---------
 Symbolic Z-matrix:
 Charge =  0 Multiplicity = 1
 C                    -0.13938  -0.00672   0.00086 
 Cl                    1.63372   0.0788   -0.00988 
 H                    -0.47793  -0.5552   -0.88687 
 H                    -0.46835  -0.52811   0.9083 
 H                    -0.54817   1.01123  -0.01231 
 
                          Input orientation:                          
 ---------------------------------------------------------------------
 Center     Atomic      Atomic             Coordinates (Angstroms)
 Number     Number       Type             X           Y           Z
 ---------------------------------------------------------------------
      1          6           0       -0.139376   -0.006721    0.000864
      2         17           0        1.633717    0.078795   -0.009884
      3          1           0       -0.477928   -0.555196   -0.886870
      4          1           0       -0.468346   -0.528109    0.908304
      5          1           0       -0.548168    1.011232   -0.012313
 ---------------------------------------------------------------------
                    Distance matrix (angstroms):
                    1          2          3          4          5
     1  C    0.000000
     2  Cl   1.775187   0.000000
     3  H    1.097048   2.372782   0.000000
     4  H    1.097048   2.372777   1.795404   0.000000
     5  H    1.097047   2.372776   1.795405   1.795405   0.000000
 This structure is nearly, but not quite of a higher symmetry.
 Consider Symm=Loose if the higher symmetry is desired.
 Stoichiometry    CH3Cl
 Framework group  C1[X(CH3Cl)]
 Deg. of freedom     9
 Full point group                 C1      NOp   1
 Largest Abelian subgroup         C1      NOp   1
 Largest concise Abelian subgroup C1      NOp   1
                         Standard orientation:                         
 ---------------------------------------------------------------------
 Center     Atomic      Atomic             Coordinates (Angstroms)
 Number     Number       Type             X           Y           Z
 ---------------------------------------------------------------------
      1          6           0       -0.051279    0.246176    1.090640
      2         17           0        0.030052   -0.144270   -0.639165
      3          1           0        0.679292    1.032928    1.316030
      4          1           0       -1.062249    0.596769    1.332588
      5          1           0        0.179744   -0.654159    1.673339
 ---------------------------------------------------------------------
 Rotational constants (GHZ):         155.5633805          13.3684760          13.3684750
 Standard basis: def2SVP (5D, 7F)
 There are    49 symmetry adapted cartesian basis functions of A   symmetry.
 There are    47 symmetry adapted basis functions of A   symmetry.
    47 basis functions,    83 primitive gaussians,    49 cartesian basis functions
    13 alpha electrons       13 beta electrons
       nuclear repulsion energy        51.3466712740 Hartrees.
 NAtoms=    5 NActive=    5 NUniq=    5 SFac= 1.00D+00 NAtFMM=   60 NAOKFM=F Big=F
 Integral buffers will be    131072 words long.
 Raffenetti 2 integral format.
 Two-electron integral symmetry is turned on.
 One-electron integrals computed using PRISM.
   1 Symmetry operations used in ECPInt.
 ECPInt:  NShTT=     276 NPrTT=    1080 LenC2=     277 LenP2D=     991.
 LDataN:  DoStor=T MaxTD1= 4 Len=   56
 NBasis=    47 RedAO= T EigKep=  1.13D-02  NBF=    47
 NBsUse=    47 1.00D-06 EigRej= -1.00D+00 NBFU=    47
 ExpMin= 1.22D-01 ExpMax= 1.04D+04 ExpMxC= 1.57D+03 IAcc=3 IRadAn=         5 AccDes= 0.00D+00
 Harris functional with IExCor= 1009 and IRadAn=       5 diagonalized for initial guess.
 HarFok:  IExCor= 1009 AccDes= 0.00D+00 IRadAn=         5 IDoV= 1 UseB2=F ITyADJ=14
 ICtDFT=  3500011 ScaDFX=  1.000000  1.000000  1.000000  1.000000
 FoFCou: FMM=F IPFlag=           0 FMFlag=      100000 FMFlg1=           0
         NFxFlg=           0 DoJE=T BraDBF=F KetDBF=T FulRan=T
         wScrn=  0.000000 ICntrl=       500 IOpCl=  0 I1Cent=   200000004 NGrid=           0
         NMat0=    1 NMatS0=      1 NMatT0=    0 NMatD0=    1 NMtDS0=    0 NMtDT0=    0
 Petite list used in FoFCou.
 Keep R1 ints in memory in canonical form, NReq=56488974.
 Requested convergence on RMS density matrix=1.00D-08 within 128 cycles.
 Requested convergence on MAX density matrix=1.00D-06.
 Requested convergence on             energy=1.00D-06.
 No special actions if energy rises.
 Integral accuracy reduced to 1.0D-05 until final iterations.
 Initial convergence to 1.0D-05 achieved.  Increase integral accuracy.
 SCF Done:  E(RPBE1PBE) =  -499.728579808     A.U. after   11 cycles
            NFock= 11  Conv=0.38D-08     -V/T= 2.0025

 **********************************************************************

            Population analysis using the SCF Density.

 **********************************************************************

 Orbital symmetries:
       Occupied  (A) (A) (A) (A) (A) (A) (A) (A) (A) (A) (A) (A)
                 (A)
       Virtual   (A) (A) (A) (A) (A) (A) (A) (A) (A) (A) (A) (A)
                 (A) (A) (A) (A) (A) (A) (A) (A) (A) (A) (A) (A)
                 (A) (A) (A) (A) (A) (A) (A) (A) (A) (A)
 The electronic state is 1-A.
 Alpha  occ. eigenvalues -- -101.66095 -10.28787  -9.51303  -7.25475  -7.24421
 Alpha  occ. eigenvalues --   -7.24421  -0.86864  -0.68471  -0.45907  -0.45906
 Alpha  occ. eigenvalues --   -0.42463  -0.30077  -0.30077
 Alpha virt. eigenvalues --    0.05155   0.09184   0.12919   0.12919   0.40843
 Alpha virt. eigenvalues --    0.42726   0.42726   0.53715   0.64874   0.66146
 Alpha virt. eigenvalues --    0.66146   0.78789   0.78789   0.79496   0.81735
 Alpha virt. eigenvalues --    0.81735   0.82162   0.92196   0.92196   1.25930
 Alpha virt. eigenvalues --    1.25930   1.32020   1.50792   1.72060   1.72060
 Alpha virt. eigenvalues --    1.85743   1.94992   1.94992   2.19577   2.40077
 Alpha virt. eigenvalues --    2.40077   2.68472   2.88332   2.88333
          Condensed to atoms (all electrons):
               1          2          3          4          5
     1  C    4.619776   0.253375   0.403131   0.403131   0.403131
     2  Cl   0.253375  17.036207  -0.030903  -0.030903  -0.030903
     3  H    0.403131  -0.030903   0.576380  -0.020874  -0.020874
     4  H    0.403131  -0.030903  -0.020874   0.576380  -0.020874
     5  H    0.403131  -0.030903  -0.020874  -0.020874   0.576380
 Mulliken charges:
               1
     1  C   -0.082545
     2  Cl  -0.196873
     3  H    0.093139
     4  H    0.093139
     5  H    0.093139
 Sum of Mulliken charges =  -0.00000
 Mulliken charges with hydrogens summed into heavy atoms:
               1
     1  C    0.196873
     2  Cl  -0.196873
 Electronic spatial extent (au):  <R**2>=            130.0783
 Charge=             -0.0000 electrons
 Dipole moment (field-independent basis, Debye):
    X=             -0.0856    Y=              0.4109    Z=              1.8206  Tot=              1.8684
 Quadrupole moment (field-independent basis, Debye-Ang):
   XX=            -19.4422   YY=            -19.3686   ZZ=            -17.9350
   XY=             -0.0160   XZ=             -0.0710   YZ=              0.3410
 Traceless Quadrupole moment (field-independent basis, Debye-Ang):
   XX=             -0.5270   YY=             -0.4533   ZZ=              0.9803
   XY=             -0.0160   XZ=             -0.0710   YZ=              0.3410
 Octapole moment (field-independent basis, Debye-Ang**2):
  XXX=             -0.5547  YYY=             -0.2254  ZZZ=             -2.0515  XYY=              0.4639
  XXY=              0.6389  XXZ=              0.3142  XZZ=              0.1525  YZZ=             -0.7097
  YYZ=              0.4252  XYZ=             -0.0459
 Hexadecapole moment (field-independent basis, Debye-Ang**3):
 XXXX=            -25.9008 YYYY=            -30.6897 ZZZZ=           -107.9714 XXXY=              0.1486
 XXXZ=              1.1975 YYYX=              0.9585 YYYZ=             -9.8011 ZZZX=              2.0067
 ZZZY=             -9.5304 XXYY=             -9.0412 XXZZ=            -22.6316 YYZZ=            -22.5093
 XXYZ=             -2.2809 YYXZ=              1.2978 ZZXY=             -0.0909
 N-N= 5.134667127402D+01 E-N=-1.288699839489D+03  KE= 4.984587319364D+02
 Running external command "gaunbo7 R"
         input file       "/home/javialra/scratch/Gau-3947977.EIn"
         output file      "/home/javialra/scratch/Gau-3947977.EOu"
         message file     "/home/javialra/scratch/Gau-3947977.EMs"
         fchk file        "/home/javialra/scratch/Gau-3947977.EFC"
         mat. el file     "/home/javialra/scratch/Gau-3947977.EUF"

 Writing WrtUnf unformatted file "/home/javialra/scratch/Gau-3947977.EUF"
 Gaussian matrix elements                                         Version   2 NLab=11 Len12L=8 Len4L=8
 Write SHELL TO ATOM MAP                   from file      0 offset           0 length                  23 to matrix element file.
 Write SHELL TYPES                         from file      0 offset           0 length                  23 to matrix element file.
 Write NUMBER OF PRIMITIVES PER SHELL      from file      0 offset           0 length                  23 to matrix element file.
 Write PRIMITIVE EXPONENTS                 from file      0 offset           0 length                  45 to matrix element file.
 Write CONTRACTION COEFFICIENTS            from file      0 offset           0 length                  45 to matrix element file.
 Write P(S=P) CONTRACTION COEFFICIENTS     from file      0 offset           0 length                  45 to matrix element file.
 Write COORDINATES OF EACH SHELL           from file      0 offset           0 length                  69 to matrix element file.
 Write BONDS PER ATOM                      from file      0 offset           0 length                   5 to matrix element file.
 Write BONDED ATOMS                        from file      0 offset           0 length                   8 to matrix element file.
 Write BOND TYPES                          from file      0 offset           0 length                   8 to matrix element file.
 Write ONIOM CHARGE/MULT                   from file      0 offset           0 length                  32 to matrix element file.
 Write ONIOM ATOM LAYERS                   from file      0 offset           0 length                   5 to matrix element file.
 Write ONIOM ATOM MODIFIERS                from file      0 offset           0 length                   5 to matrix element file.
 Write ONIOM ATOM TYPES                    from file      0 offset           0 length                   5 to matrix element file.
 Write ONIOM LINK ATOMS                    from file      0 offset           0 length                   5 to matrix element file.
 Write ONIOM LINK CHARGES                  from file      0 offset           0 length                   5 to matrix element file.
 Write ONIOM LINK DISTANCES                from file      0 offset           0 length                  20 to matrix element file.
 Write SYMINF INTS                         from file      0 offset           0 length                  26 to matrix element file.
 Write ROTTR TO SO                         from file      0 offset           0 length                  12 to matrix element file.
 Write GAUSSIAN SCALARS                    from file    501 offset           0 to matrix element file.
 Write OPTIMIZATION FLAGS                  from file      0 offset           0 length                   5 to matrix element file.
 Write INTEGER ISO                         from file      0 offset           0 length                   5 to matrix element file.
 Write INTEGER SPIN                        from file      0 offset           0 length                   5 to matrix element file.
 Write REAL ZEFFECTIVE                     from file      0 offset           0 length                   5 to matrix element file.
 Write REAL QUADRUPOLEMOMENT               from file      0 offset           0 length                   5 to matrix element file.
 Write REAL GFACTOR                        from file      0 offset           0 length                   5 to matrix element file.
 Write REAL ZNUCLEAR                       from file      0 offset           0 length                   5 to matrix element file.
 Write MULLIKEN CHARGES                    from file      0 offset           0 length                   5 to matrix element file.
 Write NUCLEAR GRADIENT                    from file  10584 offset           0 length                  15 to matrix element file.
 Array NUCLEAR FORCE CONSTANTS              on  file  10585 does not exist.
 Write ELECTRIC DIPOLE MOMENT              from file      0 offset           0 length                   3 to matrix element file.
 Write NON-ADIABATIC COUPLING              from file  10810 offset           0 length                  15 to matrix element file.
 Write FINITE EM FIELD                     from file  10521 offset           0 length                  35 to matrix element file.
 Write OVERLAP                             from file  10514 offset           0 length                1128 to matrix element file.
 Write CORE HAMILTONIAN ALPHA              from file  10515 offset           0 length                1128 to matrix element file.
 Write CORE HAMILTONIAN BETA               from file  10515 offset        1128 length                1128 to matrix element file.
 Write KINETIC ENERGY                      from file  10516 offset           0 length                1128 to matrix element file.
 Write ORTHOGONAL BASIS                    from file  10685 offset           0 length                2209 to matrix element file.
 Write DIPOLE INTEGRALS                    from file  10518 offset           0 length                3384 to matrix element file.
 Array DIP VEL INTEGRALS                    on  file  10572 does not exist.
 Array R X DEL INTEGRALS                    on  file  10572 does not exist.
 Write ALPHA ORBITAL ENERGIES              from file      0 offset           0 length                  47 to matrix element file.
 Write ALPHA MO COEFFICIENTS               from file  10524 offset           0 length                2209 to matrix element file.
 Write ALPHA DENSITY MATRIX                from file      0 offset           0 length                1128 to matrix element file.
 Write ALPHA FOCK MATRIX                   from file  10536 offset           0 length                1128 to matrix element file.
 Write ENERGY-WEIGHTED DENSITY             from file  10571 offset           0 length                1128 to matrix element file.
 Write ALPHA SCF DENSITY MATRIX            from file      0 offset           0 length                1128 to matrix element file.
 No 2e integrals to process.
 Perform NBO analysis...executing G16NBO...

 *********************************** NBO 7.0 ***********************************
             N A T U R A L   A T O M I C   O R B I T A L   A N D
          N A T U R A L   B O N D   O R B I T A L   A N A L Y S I S
 *************************** Thijs Stuyver (I102501) ***************************
  (c) Copyright 1996-2021 Board of Regents of the University of Wisconsin System
      on behalf of the Theoretical Chemistry Institute.  All rights reserved.

          Cite this program [NBO 7.0.10 (8-Feb-2021)] as:

          NBO 7.0.  E. D. Glendening, J. K. Badenhoop, A. E. Reed,
          J. E. Carpenter, J. A. Bohmann, C. M. Morales, P. Karafiloglou,
          C. R. Landis, and F. Weinhold, Theoretical Chemistry Institute,
          University of Wisconsin, Madison, WI (2018)

 Filename set to /home/javialra/scratch/Gau-3947977

 Job title: NBO input


 NATURAL POPULATIONS:  Natural atomic orbital occupancies

  NAO Atom No lang   Type(AO)    Occupancy      Energy
 -------------------------------------------------------
   1    C  1  s      Cor( 1s)     1.99994     -10.28653
   2    C  1  s      Val( 2s)     1.18532      -0.27872
   3    C  1  s      Ryd( 3s)     0.00054       0.71982
   4    C  1  px     Val( 2p)     1.25498      -0.11718
   5    C  1  px     Ryd( 3p)     0.00070       0.54862
   6    C  1  py     Val( 2p)     1.23821      -0.11813
   7    C  1  py     Ryd( 3p)     0.00073       0.54585
   8    C  1  pz     Val( 2p)     0.91157      -0.13647
   9    C  1  pz     Ryd( 3p)     0.00134       0.49190
  10    C  1  dxy    Ryd( 3d)     0.00074       2.32412
  11    C  1  dxz    Ryd( 3d)     0.00073       1.97516
  12    C  1  dyz    Ryd( 3d)     0.00119       2.12576
  13    C  1  dx2y2  Ryd( 3d)     0.00058       2.22413
  14    C  1  dz2    Ryd( 3d)     0.00232       2.10675

  15   Cl  2  s      Cor( 1s)     2.00000     -89.23975
  16   Cl  2  s      Cor( 2s)     1.99999     -21.93397
  17   Cl  2  s      Val( 3s)     1.85056      -0.72258
  18   Cl  2  s      Ryd( 4s)     0.00137       0.66465
  19   Cl  2  px     Cor( 2p)     2.00000      -7.24422
  20   Cl  2  px     Val( 3p)     1.97706      -0.30945
  21   Cl  2  px     Ryd( 4p)     0.00061       0.95397
  22   Cl  2  py     Cor( 2p)     2.00000      -7.24471
  23   Cl  2  py     Val( 3p)     1.94445      -0.30714
  24   Cl  2  py     Ryd( 4p)     0.00063       0.95852
  25   Cl  2  pz     Cor( 2p)     1.99999      -7.25426
  26   Cl  2  pz     Val( 3p)     1.30940      -0.26230
  27   Cl  2  pz     Ryd( 4p)     0.00104       1.04714
  28   Cl  2  dxy    Ryd( 3d)     0.00015       0.81011
  29   Cl  2  dxz    Ryd( 3d)     0.00200       0.88331
  30   Cl  2  dyz    Ryd( 3d)     0.00280       0.90448
  31   Cl  2  dx2y2  Ryd( 3d)     0.00010       0.81423
  32   Cl  2  dz2    Ryd( 3d)     0.00680       1.05422

  33    H  3  s      Val( 1s)     0.76586       0.07745
  34    H  3  s      Ryd( 2s)     0.00095       0.31688
  35    H  3  px     Ryd( 2p)     0.00055       2.00058
  36    H  3  py     Ryd( 2p)     0.00058       2.04982
  37    H  3  pz     Ryd( 2p)     0.00012       1.70140

  38    H  4  s      Val( 1s)     0.76586       0.07745
  39    H  4  s      Ryd( 2s)     0.00095       0.31688
  40    H  4  px     Ryd( 2p)     0.00093       2.27095
  41    H  4  py     Ryd( 2p)     0.00019       1.77486
  42    H  4  pz     Ryd( 2p)     0.00012       1.70599

  43    H  5  s      Val( 1s)     0.76586       0.07745
  44    H  5  s      Ryd( 2s)     0.00095       0.31688
  45    H  5  px     Ryd( 2p)     0.00015       1.73668
  46    H  5  py     Ryd( 2p)     0.00080       2.14770
  47    H  5  pz     Ryd( 2p)     0.00030       1.86741


 Summary of Natural Population Analysis:

                                     Natural Population
             Natural    ---------------------------------------------
  Atom No    Charge        Core      Valence    Rydberg      Total
 --------------------------------------------------------------------
    C  1   -0.59888      1.99994     4.59007    0.00887     6.59888
   Cl  2   -0.09695      9.99998     7.08148    0.01548    17.09695
    H  3    0.23194      0.00000     0.76586    0.00220     0.76806
    H  4    0.23194      0.00000     0.76586    0.00220     0.76806
    H  5    0.23194      0.00000     0.76586    0.00220     0.76806
 ====================================================================
 * Total *  0.00000     11.99992    13.96912    0.03096    26.00000

                                 Natural Population
 ---------------------------------------------------------
   Core                      11.99992 ( 99.9993% of   12)
   Valence                   13.96912 ( 99.7794% of   14)
   Natural Minimal Basis     25.96904 ( 99.8809% of   26)
   Natural Rydberg Basis      0.03096 (  0.1191% of   26)
 ---------------------------------------------------------

    Atom No         Natural Electron Configuration
 ----------------------------------------------------------------------------
      C  1      [core]2s( 1.19)2p( 3.40)3d( 0.01)
     Cl  2      [core]3s( 1.85)3p( 5.23)3d( 0.01)
      H  3            1s( 0.77)
      H  4            1s( 0.77)
      H  5            1s( 0.77)


 NATURAL BOND ORBITAL ANALYSIS:

                            Occupancies       Lewis Structure    Low   High
         Max    Occ     -------------------  -----------------   occ   occ
  Cycle  Ctr   Thresh    Lewis   non-Lewis     CR  BD  nC  LP    (L)   (NL)
 ============================================================================
    1     2     1.90    25.94810   0.05190      6   4   0   3     0      0
 ----------------------------------------------------------------------------

 Structure accepted: No low occupancy Lewis orbitals

 -------------------------------------------------------
   Core                     11.99992 ( 99.999% of  12)
   Valence Lewis            13.94818 ( 99.630% of  14)
  ==================      =============================
   Total Lewis              25.94810 ( 99.800% of  26)
  -----------------------------------------------------
   Valence non-Lewis         0.04031 (  0.155% of  26)
   Rydberg non-Lewis         0.01159 (  0.045% of  26)
  ==================      =============================
   Total non-Lewis           0.05190 (  0.200% of  26)
 -------------------------------------------------------


     (Occupancy)   Bond orbital / Coefficients / Hybrids
 ------------------ Lewis ------------------------------------------------------
   1. (1.99994) CR ( 1) C  1            s(100.00%)
                                         1.0000  0.0000  0.0000  0.0000  0.0000
                                         0.0000  0.0000  0.0000  0.0000  0.0000
                                         0.0000  0.0000  0.0000  0.0000
   2. (2.00000) CR ( 1)Cl  2            s(100.00%)
                                         1.0000  0.0000  0.0000  0.0000  0.0000
                                         0.0000  0.0000  0.0000  0.0000  0.0000
                                         0.0000  0.0000  0.0000  0.0000  0.0000
                                         0.0000  0.0000  0.0000
   3. (1.99999) CR ( 2)Cl  2            s(100.00%)
                                         0.0000  1.0000  0.0000  0.0000  0.0000
                                         0.0000  0.0000  0.0000  0.0000  0.0000
                                         0.0000  0.0000  0.0000  0.0000  0.0000
                                         0.0000  0.0000  0.0000
   4. (2.00000) CR ( 3)Cl  2            s(  0.00%)p 1.00(100.00%)
                                         0.0000  0.0000  0.0000  0.0000  1.0000
                                         0.0000  0.0000  0.0000  0.0000  0.0000
                                         0.0000  0.0000  0.0000  0.0000  0.0000
                                         0.0000  0.0000  0.0000
   5. (2.00000) CR ( 4)Cl  2            s(  0.00%)p 1.00(100.00%)
                                         0.0000  0.0000  0.0000  0.0000  0.0000
                                         0.0000  0.0000  1.0000  0.0000  0.0000
                                         0.0000  0.0000  0.0000  0.0000  0.0000
                                         0.0000  0.0000  0.0000
   6. (1.99999) CR ( 5)Cl  2            s(  0.00%)p 1.00(100.00%)
                                         0.0000  0.0000  0.0000  0.0000  0.0000
                                         0.0000  0.0000  0.0000  0.0000  0.0000
                                         1.0000  0.0000  0.0000  0.0000  0.0000
                                         0.0000  0.0000  0.0000
   7. (1.99751) LP ( 1)Cl  2            s( 83.01%)p 0.20( 16.98%)d 0.00(  0.01%)
                                         0.0000  0.0000  0.9111 -0.0084  0.0000
                                         0.0189  0.0003  0.0000 -0.0906 -0.0015
                                         0.0000 -0.4014 -0.0065  0.0002  0.0009
                                        -0.0043  0.0005 -0.0107
   8. (1.97936) LP ( 2)Cl  2            s(  0.00%)p 1.00( 99.97%)d 0.00(  0.03%)
                                         0.0000  0.0000  0.0000  0.0000  0.0000
                                         0.7972 -0.0072  0.0000  0.5956 -0.0053
                                         0.0000 -0.0969  0.0009  0.0018  0.0145
                                         0.0102 -0.0030 -0.0030
   9. (1.97936) LP ( 3)Cl  2            s(  0.00%)p 1.00( 99.97%)d 0.00(  0.03%)
                                         0.0000  0.0000  0.0000  0.0000  0.0000
                                        -0.6017  0.0054  0.0000  0.7724 -0.0069
                                         0.0000 -0.2026  0.0018 -0.0031 -0.0106
                                         0.0128 -0.0035 -0.0062
  10. (1.99848) BD ( 1) C  1-Cl  2
               ( 43.14%)   0.6568* C  1 s( 18.90%)p 4.28( 80.84%)d 0.01(  0.27%)
                                         0.0000  0.4344  0.0160  0.0412  0.0010
                                        -0.1977 -0.0047 -0.8759 -0.0209 -0.0009
                                        -0.0040  0.0193 -0.0021  0.0480
               ( 56.86%)   0.7541*Cl  2 s( 17.05%)p 4.83( 82.31%)d 0.04(  0.64%)
                                         0.0000  0.0000  0.4116  0.0328  0.0000
                                        -0.0415 -0.0013  0.0000  0.1994  0.0064
                                         0.0000  0.8836  0.0285 -0.0014 -0.0062
                                         0.0298 -0.0032  0.0741
  11. (1.99782) BD ( 1) C  1- H  3
               ( 62.02%)   0.7875* C  1 s( 27.04%)p 2.70( 72.91%)d 0.00(  0.05%)
                                         0.0000  0.5200 -0.0035  0.5767 -0.0037
                                         0.6124 -0.0025  0.1461  0.0045  0.0193
                                         0.0027  0.0033 -0.0007 -0.0100
               ( 37.98%)   0.6163* H  3 s( 99.87%)p 0.00(  0.13%)
                                         0.9994 -0.0023 -0.0240 -0.0257 -0.0070
  12. (1.99782) BD ( 1) C  1- H  4
               ( 62.02%)   0.7875* C  1 s( 27.04%)p 2.70( 72.91%)d 0.00(  0.05%)
                                         0.0000  0.5200 -0.0035 -0.7946  0.0045
                                         0.2690 -0.0004  0.1592  0.0044 -0.0113
                                        -0.0045  0.0018  0.0156 -0.0099
               ( 37.98%)   0.6163* H  4 s( 99.87%)p 0.00(  0.13%)
                                         0.9994 -0.0023  0.0331 -0.0114 -0.0076
  13. (1.99782) BD ( 1) C  1- H  5
               ( 62.02%)   0.7875* C  1 s( 27.04%)p 2.70( 72.91%)d 0.00(  0.05%)
                                         0.0000  0.5200 -0.0035  0.1834 -0.0014
                                        -0.7160  0.0055  0.4275  0.0028 -0.0076
                                         0.0037 -0.0146 -0.0139 -0.0038
               ( 37.98%)   0.6163* H  5 s( 99.87%)p 0.00(  0.13%)
                                         0.9994 -0.0023 -0.0076  0.0296 -0.0188
 ---------------- non-Lewis ----------------------------------------------------
  14. (0.00095) BD*( 1) C  1-Cl  2
               ( 56.86%)   0.7541* C  1 s( 18.90%)p 4.28( 80.84%)d 0.01(  0.27%)
                                         0.0000  0.4344  0.0160  0.0412  0.0010
                                        -0.1977 -0.0047 -0.8759 -0.0209 -0.0009
                                        -0.0040  0.0193 -0.0021  0.0480
               ( 43.14%)  -0.6568*Cl  2 s( 17.05%)p 4.83( 82.31%)d 0.04(  0.64%)
                                         0.0000  0.0000  0.4116  0.0328  0.0000
                                        -0.0415 -0.0013  0.0000  0.1994  0.0064
                                         0.0000  0.8836  0.0285 -0.0014 -0.0062
                                         0.0298 -0.0032  0.0741
  15. (0.01312) BD*( 1) C  1- H  3
               ( 37.98%)   0.6163* C  1 s( 27.04%)p 2.70( 72.91%)d 0.00(  0.05%)
                                         0.0000 -0.5200  0.0035 -0.5767  0.0037
                                        -0.6124  0.0025 -0.1461 -0.0045 -0.0193
                                        -0.0027 -0.0033  0.0007  0.0100
               ( 62.02%)  -0.7875* H  3 s( 99.87%)p 0.00(  0.13%)
                                        -0.9994  0.0023  0.0240  0.0257  0.0070
  16. (0.01312) BD*( 1) C  1- H  4
               ( 37.98%)   0.6163* C  1 s( 27.04%)p 2.70( 72.91%)d 0.00(  0.05%)
                                         0.0000 -0.5200  0.0035  0.7946 -0.0045
                                        -0.2690  0.0004 -0.1592 -0.0044  0.0113
                                         0.0045 -0.0018 -0.0156  0.0099
               ( 62.02%)  -0.7875* H  4 s( 99.87%)p 0.00(  0.13%)
                                        -0.9994  0.0023 -0.0331  0.0114  0.0076
  17. (0.01312) BD*( 1) C  1- H  5
               ( 37.98%)   0.6163* C  1 s( 27.04%)p 2.70( 72.91%)d 0.00(  0.05%)
                                         0.0000 -0.5200  0.0035 -0.1834  0.0014
                                         0.7160 -0.0055 -0.4275 -0.0028  0.0076
                                        -0.0037  0.0146  0.0139  0.0038
               ( 62.02%)  -0.7875* H  5 s( 99.87%)p 0.00(  0.13%)
                                        -0.9994  0.0023  0.0076 -0.0296  0.0188
  18. (0.00140) RY ( 1) C  1            s(  0.00%)p 1.00( 44.69%)d 1.24( 55.31%)
                                         0.0000  0.0000  0.0000 -0.0041  0.4808
                                         0.0038 -0.4476 -0.0011  0.1236  0.1452
                                         0.5066 -0.4698  0.0034  0.2339
  19. (0.00140) RY ( 2) C  1            s(  0.00%)p 1.00( 44.69%)d 1.24( 55.31%)
                                         0.0000  0.0000  0.0000 -0.0039  0.4634
                                        -0.0040  0.4742  0.0007 -0.0852  0.1697
                                         0.4855  0.4950 -0.1331 -0.1608
  20. (0.00125) RY ( 3) C  1            s( 22.54%)p 3.36( 75.65%)d 0.08(  1.81%)
                                         0.0000 -0.0046  0.4747 -0.0016  0.0398
                                         0.0076 -0.1911  0.0338 -0.8469 -0.0024
                                        -0.0104  0.0500 -0.0054  0.1244
  21. (0.00001) RY ( 4) C  1            s( 71.11%)p 0.23( 16.46%)d 0.17( 12.43%)
  22. (0.00000) RY ( 5) C  1            s(  6.33%)p 1.30(  8.20%)d13.50( 85.47%)
  23. (0.00000) RY ( 6) C  1            s(  0.00%)p 1.00(  0.56%)d99.99( 99.44%)
  24. (0.00000) RY ( 7) C  1            s(  0.00%)p 1.00(  0.56%)d99.99( 99.44%)
  25. (0.00000) RY ( 8) C  1            s(  0.00%)p 1.00( 54.82%)d 0.82( 45.18%)
  26. (0.00000) RY ( 9) C  1            s(  0.00%)p 1.00( 54.82%)d 0.82( 45.18%)
  27. (0.00191) RY ( 1)Cl  2            s(  0.00%)p 1.00( 23.38%)d 3.28( 76.62%)
                                         0.0000  0.0000  0.0000  0.0000  0.0000
                                        -0.0075  0.3139  0.0000 -0.0086  0.3615
                                         0.0000  0.0016 -0.0668  0.1767  0.5388
                                         0.6143 -0.1585 -0.2052
  28. (0.00191) RY ( 2)Cl  2            s(  0.00%)p 1.00( 23.38%)d 3.28( 76.62%)
                                         0.0000  0.0000  0.0000  0.0000  0.0000
                                        -0.0087  0.3669  0.0000  0.0072 -0.3028
                                         0.0000 -0.0020  0.0856  0.1811  0.6310
                                        -0.5155  0.0076  0.2636
  29. (0.00009) RY ( 3)Cl  2            s(  5.45%)p 0.19(  1.04%)d17.17( 93.52%)
  30. (0.00001) RY ( 4)Cl  2            s( 41.38%)p 1.32( 54.63%)d 0.10(  3.99%)
  31. (0.00000) RY ( 5)Cl  2            s( 53.12%)p 0.85( 45.04%)d 0.03(  1.83%)
  32. (0.00000) RY ( 6)Cl  2            s(  0.00%)p 1.00(  0.53%)d99.99( 99.47%)
  33. (0.00000) RY ( 7)Cl  2            s(  0.00%)p 1.00(  0.53%)d99.99( 99.47%)
  34. (0.00000) RY ( 8)Cl  2            s(  0.00%)p 1.00( 76.12%)d 0.31( 23.88%)
  35. (0.00000) RY ( 9)Cl  2            s(  0.00%)p 1.00( 76.12%)d 0.31( 23.88%)
  36. (0.00098) RY ( 1) H  3            s( 96.97%)p 0.03(  3.03%)
                                         0.0042  0.9847 -0.0095  0.0369  0.1698
  37. (0.00011) RY ( 2) H  3            s(  1.43%)p68.69( 98.57%)
                                         0.0179  0.1184  0.5634  0.3594 -0.7342
  38. (0.00010) RY ( 3) H  3            s(  0.00%)p 1.00(100.00%)
                                         0.0000  0.0000 -0.6917  0.6968 -0.1898
  39. (0.00000) RY ( 4) H  3            s(  1.72%)p57.13( 98.28%)
  40. (0.00098) RY ( 1) H  4            s( 96.97%)p 0.03(  3.03%)
                                         0.0042  0.9847 -0.0060  0.0377  0.1697
  41. (0.00011) RY ( 2) H  4            s(  1.43%)p68.69( 98.57%)
                                         0.0179  0.1184 -0.6793  0.0481 -0.7224
  42. (0.00010) RY ( 3) H  4            s(  0.00%)p 1.00(100.00%)
                                         0.0000  0.0000  0.2782  0.9397 -0.1990
  43. (0.00000) RY ( 4) H  4            s(  1.72%)p57.14( 98.28%)
  44. (0.00098) RY ( 1) H  5            s( 96.97%)p 0.03(  3.03%)
                                         0.0042  0.9847 -0.0085  0.0402  0.1690
  45. (0.00011) RY ( 2) H  5            s(  1.43%)p68.69( 98.57%)
                                         0.0179  0.1184  0.2070 -0.8445 -0.4792
  46. (0.00010) RY ( 3) H  5            s(  0.00%)p 1.00(100.00%)
                                         0.0000  0.0000  0.9700  0.2429 -0.0092
  47. (0.00000) RY ( 4) H  5            s(  1.72%)p57.14( 98.28%)


 NHO DIRECTIONALITY AND BOND BENDING (deviation from line of nuclear centers at
                                      the position of maximum hybrid amplitude)

         [Thresholds for printing:  angular deviation  >  1.0 degree]
                                    p- or d-character  > 25.0%
                                    orbital occupancy  >  0.10e

                        Line of Centers        Hybrid 1             Hybrid 2
                        ---------------  -------------------  ------------------
           NBO            Theta   Phi    Theta   Phi    Dev   Theta   Phi    Dev
 ===============================================================================
   8. LP ( 2)Cl  2          --     --     82.4  216.4   --      --     --    --
   9. LP ( 3)Cl  2          --     --     99.7  127.6   --      --     --    --
  11. BD ( 1) C  1- H  3   78.1   47.1    79.9   46.8   1.8     --     --    --
  12. BD ( 1) C  1- H  4   77.3  160.9    79.0  161.3   1.8     --     --    --
  13. BD ( 1) C  1- H  5   57.9  284.4    59.7  284.4   1.8     --     --    --


 SECOND ORDER PERTURBATION THEORY ANALYSIS OF FOCK MATRIX IN NBO BASIS

     Threshold for printing:   0.50 kcal/mol
                                                          E(2) E(NL)-E(L) F(L,NL)
      Donor (L) NBO              Acceptor (NL) NBO      kcal/mol   a.u.    a.u.
 ===============================================================================

 within unit  1
    7. LP ( 1)Cl  2            20. RY ( 3) C  1            0.89    1.21   0.029
    8. LP ( 2)Cl  2            15. BD*( 1) C  1- H  3      4.72    0.77   0.054
    8. LP ( 2)Cl  2            16. BD*( 1) C  1- H  4      1.72    0.77   0.032
    8. LP ( 2)Cl  2            17. BD*( 1) C  1- H  5      0.74    0.77   0.021
    8. LP ( 2)Cl  2            19. RY ( 2) C  1            0.55    1.70   0.027
    9. LP ( 3)Cl  2            16. BD*( 1) C  1- H  4      3.07    0.77   0.043
    9. LP ( 3)Cl  2            17. BD*( 1) C  1- H  5      4.04    0.77   0.050
    9. LP ( 3)Cl  2            18. RY ( 1) C  1            0.55    1.70   0.027
   11. BD ( 1) C  1- H  3      27. RY ( 1)Cl  2            0.97    1.35   0.032
   12. BD ( 1) C  1- H  4      28. RY ( 2)Cl  2            0.82    1.35   0.030
   13. BD ( 1) C  1- H  5      28. RY ( 2)Cl  2            0.65    1.35   0.026


 NATURAL BOND ORBITALS (Summary):

                                                     Principal Delocalizations
           NBO                 Occupancy    Energy   (geminal,vicinal,remote)
 ===============================================================================
 Molecular unit  1  (CH3Cl)
 ------ Lewis --------------------------------------
    1. CR ( 1) C  1             1.99994   -10.28653
    2. CR ( 1)Cl  2             2.00000   -89.23975
    3. CR ( 2)Cl  2             1.99999   -21.93397
    4. CR ( 3)Cl  2             2.00000    -7.24422
    5. CR ( 4)Cl  2             2.00000    -7.24471
    6. CR ( 5)Cl  2             1.99999    -7.25426
    7. LP ( 1)Cl  2             1.99751    -0.68560  20(v)
    8. LP ( 2)Cl  2             1.97936    -0.30964  15(v),16(v),17(v),19(v)
    9. LP ( 3)Cl  2             1.97936    -0.30964  17(v),16(v),18(v)
   10. BD ( 1) C  1-Cl  2       1.99848    -0.60927
   11. BD ( 1) C  1- H  3       1.99782    -0.52151  27(v)
   12. BD ( 1) C  1- H  4       1.99782    -0.52151  28(v)
   13. BD ( 1) C  1- H  5       1.99782    -0.52151  28(v)
 ------ non-Lewis ----------------------------------
   14. BD*( 1) C  1-Cl  2       0.00095     0.14639
   15. BD*( 1) C  1- H  3       0.01312     0.46023
   16. BD*( 1) C  1- H  4       0.01312     0.46023
   17. BD*( 1) C  1- H  5       0.01312     0.46023
   18. RY ( 1) C  1             0.00140     1.39299
   19. RY ( 2) C  1             0.00140     1.39299
   20. RY ( 3) C  1             0.00125     0.52845
   21. RY ( 4) C  1             0.00001     0.84967
   22. RY ( 5) C  1             0.00000     1.92987
   23. RY ( 6) C  1             0.00000     2.19165
   24. RY ( 7) C  1             0.00000     2.19165
   25. RY ( 8) C  1             0.00000     1.28187
   26. RY ( 9) C  1             0.00000     1.28188
   27. RY ( 1)Cl  2             0.00191     0.83283
   28. RY ( 2)Cl  2             0.00191     0.83283
   29. RY ( 3)Cl  2             0.00009     0.95346
   30. RY ( 4)Cl  2             0.00001     1.12290
   31. RY ( 5)Cl  2             0.00000     0.70866
   32. RY ( 6)Cl  2             0.00000     0.80903
   33. RY ( 7)Cl  2             0.00000     0.80903
   34. RY ( 8)Cl  2             0.00000     1.00322
   35. RY ( 9)Cl  2             0.00000     1.00322
   36. RY ( 1) H  3             0.00098     0.36692
   37. RY ( 2) H  3             0.00011     1.82333
   38. RY ( 3) H  3             0.00010     1.70761
   39. RY ( 4) H  3             0.00000     2.16032
   40. RY ( 1) H  4             0.00098     0.36692
   41. RY ( 2) H  4             0.00011     1.82332
   42. RY ( 3) H  4             0.00010     1.70761
   43. RY ( 4) H  4             0.00000     2.16032
   44. RY ( 1) H  5             0.00098     0.36692
   45. RY ( 2) H  5             0.00011     1.82332
   46. RY ( 3) H  5             0.00010     1.70761
   47. RY ( 4) H  5             0.00000     2.16032
          -------------------------------
                 Total Lewis   25.94810  ( 99.8004%)
           Valence non-Lewis    0.04031  (  0.1550%)
           Rydberg non-Lewis    0.01159  (  0.0446%)
          -------------------------------
               Total unit  1   26.00000  (100.0000%)
              Charge unit  1    0.00000

 $CHOOSE
   LONE 2 3 END
   BOND S 1 2 S 1 3 S 1 4 S 1 5 END
 $END

 NBO analysis completed in 0.05 CPU seconds (0 wall seconds)
 Maximum scratch memory used by NBO was 371582 words (2.83 MB)
 Maximum scratch memory used by G16NBO was 11733 words (0.09 MB)

 Opening RunExU unformatted file "/home/javialra/scratch/Gau-3947977.EUF"
 Read unf file /home/javialra/scratch/Gau-3947977.EUF:
 Label Gaussian matrix elements                                         IVers= 2 NLab= 2 Version=ES64L-G16RevC.01
 Title NBO input                                                       
 NAtoms=     5 NBasis=    47 NBsUse=    47 ICharg=     0 Multip=     1 NE=    26 Len12L=8 Len4L=8 IOpCl= 0 ICGU=111
 GAUSSIAN SCALARS                    NI= 1 NR= 1 NTot=       1 LenBuf=    2 NRI=1 N=    1000
 NPA CHARGES                         NI= 0 NR= 1 NTot=       5 LenBuf= 4000 NRI=1 N=       5
 Recovered energy= -499.728579808     dipole=     -0.033679304800      0.161680098406      0.716297737766
 Unable to Open any file for archive entry.
 1\1\GINC-DALE\SP\RPBE1PBE\def2SVP\C1H3Cl1\JAVIALRA\13-Sep-2024\0\\# pb
 e1pbe def2svp pop=NBO7\\NBO input\\0,1\C,0,-0.139376,-0.006721,0.00086
 4\Cl,0,1.633717,0.078795,-0.009884\H,0,-0.477928,-0.555196,-0.88687\H,
 0,-0.468346,-0.528109,0.908304\H,0,-0.548168,1.011232,-0.012313\\Versi
 on=ES64L-G16RevC.01\State=1-A\HF=-499.7285798\RMSD=3.821e-09\Dipole=-0
 .734223,-0.0354112,0.0044513\Quadrupole=0.7857372,-0.3915158,-0.394221
 4,0.0569146,-0.0071502,-0.0003438\PG=C01 [X(C1H3Cl1)]\\@
 The archive entry for this job was punched.


 THE ONLY TROUBLE WITH A SURE THING IS THE UNCERTAINTY.
     -- FROM A TEABAG (BELONGING TO W.H.?)
 Job cpu time:       0 days  0 hours 14 minutes 32.6 seconds.
 Elapsed time:       0 days  0 hours  0 minutes 14.4 seconds.
 File lengths (MBytes):  RWF=      6 Int=      0 D2E=      0 Chk=      1 Scr=      1
 Normal termination of Gaussian 16 at Fri Sep 13 15:33:01 2024.
