 Entering Gaussian System, Link 0=/opt/gaussian/g16/C01/g16/g16
 Input=r0_NBO.com
 Output=r0_NBO.log
 Initial command:
 /opt/gaussian/g16/C01/g16/l1.exe "/home/javialra/scratch/Gau-2625546.inp" -scrdir="/home/javialra/scratch/"
 Entering Link 1 = /opt/gaussian/g16/C01/g16/l1.exe PID=   2625547.
  
 Copyright (c) 1988-2019, Gaussian, Inc.  All Rights Reserved.
  
 This is part of the Gaussian(R) 16 program.  It is based on
 the Gaussian(R) 09 system (copyright 2009, Gaussian, Inc.),
 the Gaussian(R) 03 system (copyright 2003, Gaussian, Inc.),
 the Gaussian(R) 98 system (copyright 1998, Gaussian, Inc.),
 the Gaussian(R) 94 system (copyright 1995, Gaussian, Inc.),
 the Gaussian 92(TM) system (copyright 1992, Gaussian, Inc.),
 the Gaussian 90(TM) system (copyright 1990, Gaussian, Inc.),
 the Gaussian 88(TM) system (copyright 1988, Gaussian, Inc.),
 the Gaussian 86(TM) system (copyright 1986, Carnegie Mellon
 University), and the Gaussian 82(TM) system (copyright 1983,
 Carnegie Mellon University). Gaussian is a federally registered
 trademark of Gaussian, Inc.
  
 This software contains proprietary and confidential information,
 including trade secrets, belonging to Gaussian, Inc.
  
 This software is provided under written license and may be
 used, copied, transmitted, or stored only in accord with that
 written license.
  
 The following legend is applicable only to US Government
 contracts under FAR:
  
                    RESTRICTED RIGHTS LEGEND
  
 Use, reproduction and disclosure by the US Government is
 subject to restrictions as set forth in subparagraphs (a)
 and (c) of the Commercial Computer Software - Restricted
 Rights clause in FAR 52.227-19.
  
 Gaussian, Inc.
 340 Quinnipiac St., Bldg. 40, Wallingford CT 06492
  
  
 ---------------------------------------------------------------
 Warning -- This program may not be used in any manner that
 competes with the business of Gaussian, Inc. or will provide
 assistance to any competitor of Gaussian, Inc.  The licensee
 of this program is prohibited from giving any competitor of
 Gaussian, Inc. access to this program.  By using this program,
 the user acknowledges that Gaussian, Inc. is engaged in the
 business of creating and licensing software in the field of
 computational chemistry and represents and warrants to the
 licensee that it is not a competitor of Gaussian, Inc. and that
 it will not use this program in any manner prohibited above.
 ---------------------------------------------------------------
  

 Cite this work as:
 Gaussian 16, Revision C.01,
 M. J. Frisch, G. W. Trucks, H. B. Schlegel, G. E. Scuseria, 
 M. A. Robb, J. R. Cheeseman, G. Scalmani, V. Barone, 
 G. A. Petersson, H. Nakatsuji, X. Li, M. Caricato, A. V. Marenich, 
 J. Bloino, B. G. Janesko, R. Gomperts, B. Mennucci, H. P. Hratchian, 
 J. V. Ortiz, A. F. Izmaylov, J. L. Sonnenberg, D. Williams-Young, 
 F. Ding, F. Lipparini, F. Egidi, J. Goings, B. Peng, A. Petrone, 
 T. Henderson, D. Ranasinghe, V. G. Zakrzewski, J. Gao, N. Rega, 
 G. Zheng, W. Liang, M. Hada, M. Ehara, K. Toyota, R. Fukuda, 
 J. Hasegawa, M. Ishida, T. Nakajima, Y. Honda, O. Kitao, H. Nakai, 
 T. Vreven, K. Throssell, J. A. Montgomery, Jr., J. E. Peralta, 
 F. Ogliaro, M. J. Bearpark, J. J. Heyd, E. N. Brothers, K. N. Kudin, 
 V. N. Staroverov, T. A. Keith, R. Kobayashi, J. Normand, 
 K. Raghavachari, A. P. Rendell, J. C. Burant, S. S. Iyengar, 
 J. Tomasi, M. Cossi, J. M. Millam, M. Klene, C. Adamo, R. Cammi, 
 J. W. Ochterski, R. L. Martin, K. Morokuma, O. Farkas, 
 J. B. Foresman, and D. J. Fox, Gaussian, Inc., Wallingford CT, 2019.
 
 ******************************************
 Gaussian 16:  ES64L-G16RevC.01  3-Jul-2019
                31-May-2024 
 ******************************************
 %nprocshared=16
 Will use up to   16 processors via shared memory.
 %mem=16000MB
 --------------------------
 # pbe1pbe def2svp pop=NBO7
 --------------------------
 1/38=1,172=1/1;
 2/12=2,17=6,18=5,40=1/2;
 3/5=43,7=101,11=2,25=1,30=1,74=-13/1,2,3;
 4//1;
 5/5=2,38=5/2;
 6/7=2,8=2,9=2,10=2,28=1,40=1,113=1,114=1,124=3103/1,12;
 99/5=1,9=1/99;
 ---------
 NBO input
 ---------
 Symbolic Z-matrix:
 Charge = -1 Multiplicity = 1
 O                    -0.67621   0.72108   1.41214 
 P                    -0.07356   0.39153   0.07654 
 O                     0.28192   1.37422  -1.0022 
 O                     1.3146   -0.50454   0.33301 
 O                    -1.07631  -0.77161  -0.58416 
 H                     1.88191  -0.21776  -0.39108 
 H                    -1.65235  -0.99292   0.15585 
 
                          Input orientation:                          
 ---------------------------------------------------------------------
 Center     Atomic      Atomic             Coordinates (Angstroms)
 Number     Number       Type             X           Y           Z
 ---------------------------------------------------------------------
      1          8           0       -0.676208    0.721079    1.412136
      2         15           0       -0.073557    0.391526    0.076541
      3          8           0        0.281918    1.374222   -1.002196
      4          8           0        1.314599   -0.504535    0.333005
      5          8           0       -1.076312   -0.771609   -0.584158
      6          1           0        1.881905   -0.217763   -0.391078
      7          1           0       -1.652345   -0.992919    0.155850
 ---------------------------------------------------------------------
                    Distance matrix (angstroms):
                    1          2          3          4          5
     1  O    0.000000
     2  P    1.501868   0.000000
     3  O    2.678358   1.501908   0.000000
     4  O    2.574872   1.672028   2.525652   0.000000
     5  O    2.524557   1.671803   2.573740   2.574679   0.000000
     6  H    3.267560   2.100888   2.338341   0.963520   3.015804
     7  H    2.338565   2.101321   3.268914   3.012086   0.963537
                    6          7
     6  H    0.000000
     7  H    3.659361   0.000000
 Stoichiometry    H2O4P(1-)
 Framework group  C1[X(H2O4P)]
 Deg. of freedom    15
 Full point group                 C1      NOp   1
 Largest Abelian subgroup         C1      NOp   1
 Largest concise Abelian subgroup C1      NOp   1
                         Standard orientation:                         
 ---------------------------------------------------------------------
 Center     Atomic      Atomic             Coordinates (Angstroms)
 Number     Number       Type             X           Y           Z
 ---------------------------------------------------------------------
      1          8           0        0.907792   -0.968741   -0.866346
      2         15           0       -0.000096    0.003016   -0.168466
      3          8           0       -0.906340    1.001338   -0.830130
      4          8           0       -0.978609   -0.853614    0.882426
      5          8           0        0.977724    0.819929    0.913867
      6          1           0       -1.800571   -0.351656    0.854387
      7          1           0        1.797475    0.315124    0.874068
 ---------------------------------------------------------------------
 Rotational constants (GHZ):           4.8256714           4.4028941           4.3145531
 Standard basis: def2SVP (5D, 7F)
 There are    89 symmetry adapted cartesian basis functions of A   symmetry.
 There are    84 symmetry adapted basis functions of A   symmetry.
    84 basis functions,   151 primitive gaussians,    89 cartesian basis functions
    25 alpha electrons       25 beta electrons
       nuclear repulsion energy       264.9675787595 Hartrees.
 NAtoms=    7 NActive=    7 NUniq=    7 SFac= 1.00D+00 NAtFMM=   60 NAOKFM=F Big=F
 Integral buffers will be    131072 words long.
 Raffenetti 2 integral format.
 Two-electron integral symmetry is turned on.
 One-electron integrals computed using PRISM.
   1 Symmetry operations used in ECPInt.
 ECPInt:  NShTT=     741 NPrTT=    3007 LenC2=     736 LenP2D=    2444.
 LDataN:  DoStor=T MaxTD1= 4 Len=   56
 NBasis=    84 RedAO= T EigKep=  1.39D-02  NBF=    84
 NBsUse=    84 1.00D-06 EigRej= -1.00D+00 NBFU=    84
 ExpMin= 1.05D-01 ExpMax= 8.00D+03 ExpMxC= 1.20D+03 IAcc=3 IRadAn=         5 AccDes= 0.00D+00
 Harris functional with IExCor= 1009 and IRadAn=       5 diagonalized for initial guess.
 HarFok:  IExCor= 1009 AccDes= 0.00D+00 IRadAn=         5 IDoV= 1 UseB2=F ITyADJ=14
 ICtDFT=  3500011 ScaDFX=  1.000000  1.000000  1.000000  1.000000
 FoFCou: FMM=F IPFlag=           0 FMFlag=      100000 FMFlg1=           0
         NFxFlg=           0 DoJE=T BraDBF=F KetDBF=T FulRan=T
         wScrn=  0.000000 ICntrl=       500 IOpCl=  0 I1Cent=   200000004 NGrid=           0
         NMat0=    1 NMatS0=      1 NMatT0=    0 NMatD0=    1 NMtDS0=    0 NMtDT0=    0
 Petite list used in FoFCou.
 Keep R1 ints in memory in canonical form, NReq=21002275.
 Requested convergence on RMS density matrix=1.00D-08 within 128 cycles.
 Requested convergence on MAX density matrix=1.00D-06.
 Requested convergence on             energy=1.00D-06.
 No special actions if energy rises.
 Integral accuracy reduced to 1.0D-05 until final iterations.
 Initial convergence to 1.0D-05 achieved.  Increase integral accuracy.
 SCF Done:  E(RPBE1PBE) =  -642.814030894     A.U. after   12 cycles
            NFock= 12  Conv=0.28D-08     -V/T= 2.0043

 **********************************************************************

            Population analysis using the SCF Density.

 **********************************************************************

 Orbital symmetries:
       Occupied  (A) (A) (A) (A) (A) (A) (A) (A) (A) (A) (A) (A)
                 (A) (A) (A) (A) (A) (A) (A) (A) (A) (A) (A) (A)
                 (A)
       Virtual   (A) (A) (A) (A) (A) (A) (A) (A) (A) (A) (A) (A)
                 (A) (A) (A) (A) (A) (A) (A) (A) (A) (A) (A) (A)
                 (A) (A) (A) (A) (A) (A) (A) (A) (A) (A) (A) (A)
                 (A) (A) (A) (A) (A) (A) (A) (A) (A) (A) (A) (A)
                 (A) (A) (A) (A) (A) (A) (A) (A) (A) (A) (A)
 The electronic state is 1-A.
 Alpha  occ. eigenvalues --  -77.10243 -19.01918 -19.01900 -18.93701 -18.93696
 Alpha  occ. eigenvalues --   -6.49230  -4.63480  -4.63382  -4.63149  -0.86997
 Alpha  occ. eigenvalues --   -0.82042  -0.75200  -0.72318  -0.39219  -0.33077
 Alpha  occ. eigenvalues --   -0.25595  -0.24253  -0.21415  -0.16718  -0.16074
 Alpha  occ. eigenvalues --   -0.13466  -0.10456  -0.08333  -0.07473  -0.06326
 Alpha virt. eigenvalues --    0.24280   0.26678   0.36322   0.38777   0.41588
 Alpha virt. eigenvalues --    0.44135   0.54191   0.75150   0.76181   0.77553
 Alpha virt. eigenvalues --    0.79017   0.82718   0.84578   0.86475   1.06774
 Alpha virt. eigenvalues --    1.06849   1.08437   1.13150   1.14332   1.20541
 Alpha virt. eigenvalues --    1.24317   1.26024   1.26313   1.29089   1.29126
 Alpha virt. eigenvalues --    1.36802   1.41663   1.43161   1.45409   1.56115
 Alpha virt. eigenvalues --    1.59252   1.62775   1.66788   1.69005   1.70360
 Alpha virt. eigenvalues --    1.88218   1.98038   2.41868   2.42371   2.80282
 Alpha virt. eigenvalues --    2.88311   2.89061   2.89513   2.89988   2.94600
 Alpha virt. eigenvalues --    2.98493   3.03826   3.04149   3.12575   3.15768
 Alpha virt. eigenvalues --    3.17377   3.20054   3.23703   3.31051   3.31331
 Alpha virt. eigenvalues --    3.56707   3.62566   3.90776   3.92733
          Condensed to atoms (all electrons):
               1          2          3          4          5          6
     1  O    8.173344   0.564603  -0.029189  -0.031085  -0.047048   0.002693
     2  P    0.564603  12.390069   0.564488   0.287768   0.287918  -0.013869
     3  O   -0.029189   0.564488   8.173310  -0.046902  -0.031117   0.019016
     4  O   -0.031085   0.287768  -0.046902   7.983062  -0.033336   0.299021
     5  O   -0.047048   0.287918  -0.031117  -0.033336   7.982990   0.002663
     6  H    0.002693  -0.013869   0.019016   0.299021   0.002663   0.543613
     7  H    0.018974  -0.013840   0.002707   0.002651   0.298999  -0.000165
               7
     1  O    0.018974
     2  P   -0.013840
     3  O    0.002707
     4  O    0.002651
     5  O    0.298999
     6  H   -0.000165
     7  H    0.543714
 Mulliken charges:
               1
     1  O   -0.652292
     2  P    0.932863
     3  O   -0.652313
     4  O   -0.461178
     5  O   -0.461068
     6  H    0.147028
     7  H    0.146960
 Sum of Mulliken charges =  -1.00000
 Mulliken charges with hydrogens summed into heavy atoms:
               1
     1  O   -0.652292
     2  P    0.932863
     3  O   -0.652313
     4  O   -0.314149
     5  O   -0.314108
 Electronic spatial extent (au):  <R**2>=            406.9528
 Charge=             -1.0000 electrons
 Dipole moment (field-independent basis, Debye):
    X=             -0.0074    Y=             -0.0555    Z=              2.4821  Tot=              2.4828
 Quadrupole moment (field-independent basis, Debye-Ang):
   XX=            -35.3278   YY=            -45.6200   ZZ=            -42.5172
   XY=              2.8322   XZ=              0.0762   YZ=             -0.0586
 Traceless Quadrupole moment (field-independent basis, Debye-Ang):
   XX=              5.8272   YY=             -4.4650   ZZ=             -1.3622
   XY=              2.8322   XZ=              0.0762   YZ=             -0.0586
 Octapole moment (field-independent basis, Debye-Ang**2):
  XXX=             -0.0618  YYY=             -0.1343  ZZZ=              2.6653  XYY=              0.3238
  XXY=             -0.2066  XXZ=              9.8114  XZZ=             -0.2914  YZZ=              0.0290
  YYZ=              2.3399  XYZ=             -8.8558
 Hexadecapole moment (field-independent basis, Debye-Ang**3):
 XXXX=           -147.5315 YYYY=           -159.7796 ZZZZ=           -152.3223 XXXY=              8.3113
 XXXZ=              0.2060 YYYX=              2.9126 YYYZ=              0.2509 ZZZX=              0.1565
 ZZZY=             -0.3347 XXYY=            -63.3024 XXZZ=            -53.6880 YYZZ=            -57.2172
 XXYZ=             -0.1844 YYXZ=             -0.0134 ZZXY=              1.7486
 N-N= 2.649675787595D+02 E-N=-2.066621019077D+03  KE= 6.400807028766D+02
 Running external command "gaunbo7 R"
         input file       "/home/javialra/scratch/Gau-2625547.EIn"
         output file      "/home/javialra/scratch/Gau-2625547.EOu"
         message file     "/home/javialra/scratch/Gau-2625547.EMs"
         fchk file        "/home/javialra/scratch/Gau-2625547.EFC"
         mat. el file     "/home/javialra/scratch/Gau-2625547.EUF"

 Writing WrtUnf unformatted file "/home/javialra/scratch/Gau-2625547.EUF"
 Gaussian matrix elements                                         Version   2 NLab=11 Len12L=8 Len4L=8
 Write SHELL TO ATOM MAP                   from file      0 offset           0 length                  38 to matrix element file.
 Write SHELL TYPES                         from file      0 offset           0 length                  38 to matrix element file.
 Write NUMBER OF PRIMITIVES PER SHELL      from file      0 offset           0 length                  38 to matrix element file.
 Write PRIMITIVE EXPONENTS                 from file      0 offset           0 length                  76 to matrix element file.
 Write CONTRACTION COEFFICIENTS            from file      0 offset           0 length                  76 to matrix element file.
 Write P(S=P) CONTRACTION COEFFICIENTS     from file      0 offset           0 length                  76 to matrix element file.
 Write COORDINATES OF EACH SHELL           from file      0 offset           0 length                 114 to matrix element file.
 Write BONDS PER ATOM                      from file      0 offset           0 length                   7 to matrix element file.
 Write BONDED ATOMS                        from file      0 offset           0 length                  12 to matrix element file.
 Write BOND TYPES                          from file      0 offset           0 length                  12 to matrix element file.
 Write ONIOM CHARGE/MULT                   from file      0 offset           0 length                  32 to matrix element file.
 Write ONIOM ATOM LAYERS                   from file      0 offset           0 length                   7 to matrix element file.
 Write ONIOM ATOM MODIFIERS                from file      0 offset           0 length                   7 to matrix element file.
 Write ONIOM ATOM TYPES                    from file      0 offset           0 length                   7 to matrix element file.
 Write ONIOM LINK ATOMS                    from file      0 offset           0 length                   7 to matrix element file.
 Write ONIOM LINK CHARGES                  from file      0 offset           0 length                   7 to matrix element file.
 Write ONIOM LINK DISTANCES                from file      0 offset           0 length                  28 to matrix element file.
 Write SYMINF INTS                         from file      0 offset           0 length                  26 to matrix element file.
 Write ROTTR TO SO                         from file      0 offset           0 length                  12 to matrix element file.
 Write GAUSSIAN SCALARS                    from file    501 offset           0 to matrix element file.
 Write OPTIMIZATION FLAGS                  from file      0 offset           0 length                   7 to matrix element file.
 Write INTEGER ISO                         from file      0 offset           0 length                   7 to matrix element file.
 Write INTEGER SPIN                        from file      0 offset           0 length                   7 to matrix element file.
 Write REAL ZEFFECTIVE                     from file      0 offset           0 length                   7 to matrix element file.
 Write REAL GFACTOR                        from file      0 offset           0 length                   7 to matrix element file.
 Write REAL ZNUCLEAR                       from file      0 offset           0 length                   7 to matrix element file.
 Write MULLIKEN CHARGES                    from file      0 offset           0 length                   7 to matrix element file.
 Write NUCLEAR GRADIENT                    from file  10584 offset           0 length                  21 to matrix element file.
 Array NUCLEAR FORCE CONSTANTS              on  file  10585 does not exist.
 Write ELECTRIC DIPOLE MOMENT              from file      0 offset           0 length                   3 to matrix element file.
 Write NON-ADIABATIC COUPLING              from file  10810 offset           0 length                  21 to matrix element file.
 Write FINITE EM FIELD                     from file  10521 offset           0 length                  35 to matrix element file.
 Write OVERLAP                             from file  10514 offset           0 length                3570 to matrix element file.
 Write CORE HAMILTONIAN ALPHA              from file  10515 offset           0 length                3570 to matrix element file.
 Write CORE HAMILTONIAN BETA               from file  10515 offset        3570 length                3570 to matrix element file.
 Write KINETIC ENERGY                      from file  10516 offset           0 length                3570 to matrix element file.
 Write ORTHOGONAL BASIS                    from file  10685 offset           0 length                7056 to matrix element file.
 Write DIPOLE INTEGRALS                    from file  10518 offset           0 length               10710 to matrix element file.
 Array DIP VEL INTEGRALS                    on  file  10572 does not exist.
 Array R X DEL INTEGRALS                    on  file  10572 does not exist.
 Write ALPHA ORBITAL ENERGIES              from file      0 offset           0 length                  84 to matrix element file.
 Write ALPHA MO COEFFICIENTS               from file  10524 offset           0 length                7056 to matrix element file.
 Write ALPHA DENSITY MATRIX                from file      0 offset           0 length                3570 to matrix element file.
 Write ALPHA FOCK MATRIX                   from file  10536 offset           0 length                3570 to matrix element file.
 Write ENERGY-WEIGHTED DENSITY             from file  10571 offset           0 length                3570 to matrix element file.
 Write ALPHA SCF DENSITY MATRIX            from file      0 offset           0 length                3570 to matrix element file.
 No 2e integrals to process.
 Perform NBO analysis...executing G16NBO...

 *********************************** NBO 7.0 ***********************************
             N A T U R A L   A T O M I C   O R B I T A L   A N D
          N A T U R A L   B O N D   O R B I T A L   A N A L Y S I S
 *************************** Thijs Stuyver (I102501) ***************************
  (c) Copyright 1996-2021 Board of Regents of the University of Wisconsin System
      on behalf of the Theoretical Chemistry Institute.  All rights reserved.

          Cite this program [NBO 7.0.10 (8-Feb-2021)] as:

          NBO 7.0.  E. D. Glendening, J. K. Badenhoop, A. E. Reed,
          J. E. Carpenter, J. A. Bohmann, C. M. Morales, P. Karafiloglou,
          C. R. Landis, and F. Weinhold, Theoretical Chemistry Institute,
          University of Wisconsin, Madison, WI (2018)

 Filename set to /home/javialra/scratch/Gau-2625547

 Job title: NBO input


 NATURAL POPULATIONS:  Natural atomic orbital occupancies

  NAO Atom No lang   Type(AO)    Occupancy      Energy
 -------------------------------------------------------
   1    O  1  s      Cor( 1s)     1.99997     -18.93659
   2    O  1  s      Val( 2s)     1.81928      -0.54093
   3    O  1  s      Ryd( 3s)     0.00127       1.71287
   4    O  1  px     Val( 2p)     1.76635      -0.06728
   5    O  1  px     Ryd( 3p)     0.00027       1.30518
   6    O  1  py     Val( 2p)     1.76226      -0.06876
   7    O  1  py     Ryd( 3p)     0.00023       1.30204
   8    O  1  pz     Val( 2p)     1.79566      -0.05856
   9    O  1  pz     Ryd( 3p)     0.00017       1.32210
  10    O  1  dxy    Ryd( 3d)     0.00172       3.14541
  11    O  1  dxz    Ryd( 3d)     0.00122       3.05119
  12    O  1  dyz    Ryd( 3d)     0.00139       3.06907
  13    O  1  dx2y2  Ryd( 3d)     0.00138       2.99888
  14    O  1  dz2    Ryd( 3d)     0.00110       2.99040

  15    P  2  s      Cor( 1s)     2.00000     -63.61182
  16    P  2  s      Cor( 2s)     1.99997     -19.98169
  17    P  2  s      Val( 3s)     0.76042       0.02429
  18    P  2  s      Ryd( 4s)     0.00141       0.54555
  19    P  2  px     Cor( 2p)     1.99998      -4.63330
  20    P  2  px     Val( 3p)     0.54704       0.24890
  21    P  2  px     Ryd( 4p)     0.01236       0.85585
  22    P  2  py     Cor( 2p)     1.99998      -4.63286
  23    P  2  py     Val( 3p)     0.54439       0.25884
  24    P  2  py     Ryd( 4p)     0.01631       0.83189
  25    P  2  pz     Cor( 2p)     1.99998      -4.63382
  26    P  2  pz     Val( 3p)     0.56720       0.22190
  27    P  2  pz     Ryd( 4p)     0.01101       0.83190
  28    P  2  dxy    Ryd( 3d)     0.02245       1.20071
  29    P  2  dxz    Ryd( 3d)     0.02419       1.13325
  30    P  2  dyz    Ryd( 3d)     0.01959       1.15664
  31    P  2  dx2y2  Ryd( 3d)     0.02724       0.95091
  32    P  2  dz2    Ryd( 3d)     0.02089       0.93351

  33    O  3  s      Cor( 1s)     1.99997     -18.93664
  34    O  3  s      Val( 2s)     1.81928      -0.54097
  35    O  3  s      Ryd( 3s)     0.00127       1.71282
  36    O  3  px     Val( 2p)     1.76687      -0.06726
  37    O  3  px     Ryd( 3p)     0.00027       1.30528
  38    O  3  py     Val( 2p)     1.75893      -0.07002
  39    O  3  py     Ryd( 3p)     0.00023       1.30013
  40    O  3  pz     Val( 2p)     1.79845      -0.05740
  41    O  3  pz     Ryd( 3p)     0.00017       1.32382
  42    O  3  dxy    Ryd( 3d)     0.00178       3.15535
  43    O  3  dxz    Ryd( 3d)     0.00116       3.04065
  44    O  3  dyz    Ryd( 3d)     0.00139       3.06525
  45    O  3  dx2y2  Ryd( 3d)     0.00142       3.00213
  46    O  3  dz2    Ryd( 3d)     0.00107       2.99139

  47    O  4  s      Cor( 1s)     1.99997     -19.01877
  48    O  4  s      Val( 2s)     1.76715      -0.60313
  49    O  4  s      Ryd( 3s)     0.00244       1.59541
  50    O  4  px     Val( 2p)     1.56132      -0.11986
  51    O  4  px     Ryd( 3p)     0.00266       1.36973
  52    O  4  py     Val( 2p)     1.82238      -0.14222
  53    O  4  py     Ryd( 3p)     0.00070       1.27215
  54    O  4  pz     Val( 2p)     1.86498      -0.14498
  55    O  4  pz     Ryd( 3p)     0.00070       1.24187
  56    O  4  dxy    Ryd( 3d)     0.00186       3.24242
  57    O  4  dxz    Ryd( 3d)     0.00058       3.02247
  58    O  4  dyz    Ryd( 3d)     0.00142       3.01111
  59    O  4  dx2y2  Ryd( 3d)     0.00101       2.99011
  60    O  4  dz2    Ryd( 3d)     0.00113       3.01114

  61    O  5  s      Cor( 1s)     1.99997     -19.01861
  62    O  5  s      Val( 2s)     1.76709      -0.60298
  63    O  5  s      Ryd( 3s)     0.00244       1.59476
  64    O  5  px     Val( 2p)     1.56307      -0.11983
  65    O  5  px     Ryd( 3p)     0.00265       1.36937
  66    O  5  py     Val( 2p)     1.82437      -0.14114
  67    O  5  py     Ryd( 3p)     0.00071       1.27153
  68    O  5  pz     Val( 2p)     1.86134      -0.14570
  69    O  5  pz     Ryd( 3p)     0.00070       1.24329
  70    O  5  dxy    Ryd( 3d)     0.00183       3.23823
  71    O  5  dxz    Ryd( 3d)     0.00062       3.02973
  72    O  5  dyz    Ryd( 3d)     0.00142       3.01112
  73    O  5  dx2y2  Ryd( 3d)     0.00099       2.98891
  74    O  5  dz2    Ryd( 3d)     0.00114       3.01021

  75    H  6  s      Val( 1s)     0.52386       0.29298
  76    H  6  s      Ryd( 2s)     0.00385       0.57604
  77    H  6  px     Ryd( 2p)     0.00170       2.57417
  78    H  6  py     Ryd( 2p)     0.00142       2.17122
  79    H  6  pz     Ryd( 2p)     0.00134       1.92017

  80    H  7  s      Val( 1s)     0.52395       0.29303
  81    H  7  s      Ryd( 2s)     0.00384       0.57606
  82    H  7  px     Ryd( 2p)     0.00170       2.57060
  83    H  7  py     Ryd( 2p)     0.00142       2.17153
  84    H  7  pz     Ryd( 2p)     0.00133       1.92391


 Summary of Natural Population Analysis:

                                     Natural Population
             Natural    ---------------------------------------------
  Atom No    Charge        Core      Valence    Rydberg      Total
 --------------------------------------------------------------------
    O  1   -1.15228      1.99997     7.14356    0.00876     9.15228
    P  2    2.42558      9.99991     2.41905    0.15546    12.57442
    O  3   -1.15227      1.99997     7.14354    0.00876     9.15227
    O  4   -1.02829      1.99997     7.01583    0.01250     9.02829
    O  5   -1.02834      1.99997     7.01587    0.01250     9.02834
    H  6    0.46784      0.00000     0.52386    0.00831     0.53216
    H  7    0.46776      0.00000     0.52395    0.00829     0.53224
 ====================================================================
 * Total * -1.00000     17.99978    31.78565    0.21457    50.00000

                                 Natural Population
 ---------------------------------------------------------
   Core                      17.99978 ( 99.9988% of   18)
   Valence                   31.78565 ( 99.3302% of   32)
   Natural Minimal Basis     49.78543 ( 99.5709% of   50)
   Natural Rydberg Basis      0.21457 (  0.4291% of   50)
 ---------------------------------------------------------

    Atom No         Natural Electron Configuration
 ----------------------------------------------------------------------------
      O  1      [core]2s( 1.82)2p( 5.32)3d( 0.01)
      P  2      [core]3s( 0.76)3p( 1.66)3d( 0.11)4p( 0.04)
      O  3      [core]2s( 1.82)2p( 5.32)3d( 0.01)
      O  4      [core]2s( 1.77)2p( 5.25)3d( 0.01)
      O  5      [core]2s( 1.77)2p( 5.25)3d( 0.01)
      H  6            1s( 0.52)
      H  7            1s( 0.52)


 NATURAL BOND ORBITAL ANALYSIS:

                            Occupancies       Lewis Structure    Low   High
         Max    Occ     -------------------  -----------------   occ   occ
  Cycle  Ctr   Thresh    Lewis   non-Lewis     CR  BD  nC  LP    (L)   (NL)
 ============================================================================
    1     2     1.90    48.77269   1.22731      9   7   0   9     3      5
    2     2     1.82    48.96245   1.03755      9   6   0  10     0      4
    3     2     1.64    48.31265   1.68735      9   4   0  12     0      4
    4     2     1.53    47.39034   2.60966      9   2   0  14     0      4
    5     2     1.82    48.96245   1.03755      9   6   0  10     0      4
 ----------------------------------------------------------------------------

 Structure accepted: No low occupancy Lewis orbitals

 -------------------------------------------------------
   Core                     17.99978 ( 99.999% of  18)
   Valence Lewis            30.96266 ( 96.758% of  32)
  ==================      =============================
   Total Lewis              48.96245 ( 97.925% of  50)
  -----------------------------------------------------
   Valence non-Lewis         0.80198 (  1.604% of  50)
   Rydberg non-Lewis         0.23557 (  0.471% of  50)
  ==================      =============================
   Total non-Lewis           1.03755 (  2.075% of  50)
 -------------------------------------------------------


     (Occupancy)   Bond orbital / Coefficients / Hybrids
 ------------------ Lewis ------------------------------------------------------
   1. (1.99997) CR ( 1) O  1            s(100.00%)
                                         1.0000  0.0000  0.0000  0.0000  0.0000
                                         0.0000  0.0000  0.0000  0.0000  0.0000
                                         0.0000  0.0000  0.0000  0.0000
   2. (2.00000) CR ( 1) P  2            s(100.00%)
                                         1.0000  0.0000  0.0000  0.0000  0.0000
                                         0.0000  0.0000  0.0000  0.0000  0.0000
                                         0.0000  0.0000  0.0000  0.0000  0.0000
                                         0.0000  0.0000  0.0000
   3. (1.99997) CR ( 2) P  2            s(100.00%)
                                         0.0000  1.0000  0.0000  0.0000  0.0000
                                         0.0000  0.0000  0.0000  0.0000  0.0000
                                         0.0000  0.0000  0.0000  0.0000  0.0000
                                         0.0000  0.0000  0.0000
   4. (1.99998) CR ( 3) P  2            s(  0.00%)p 1.00(100.00%)
                                         0.0000  0.0000  0.0000  0.0000  1.0000
                                         0.0000  0.0000  0.0000  0.0000  0.0000
                                         0.0000  0.0000  0.0000  0.0000  0.0000
                                         0.0000  0.0000  0.0000
   5. (1.99998) CR ( 4) P  2            s(  0.00%)p 1.00(100.00%)
                                         0.0000  0.0000  0.0000  0.0000  0.0000
                                         0.0000  0.0000  1.0000  0.0000  0.0000
                                         0.0000  0.0000  0.0000  0.0000  0.0000
                                         0.0000  0.0000  0.0000
   6. (1.99998) CR ( 5) P  2            s(  0.00%)p 1.00(100.00%)
                                         0.0000  0.0000  0.0000  0.0000  0.0000
                                         0.0000  0.0000  0.0000  0.0000  0.0000
                                         1.0000  0.0000  0.0000  0.0000  0.0000
                                         0.0000  0.0000  0.0000
   7. (1.99997) CR ( 1) O  3            s(100.00%)
                                         1.0000  0.0000  0.0000  0.0000  0.0000
                                         0.0000  0.0000  0.0000  0.0000  0.0000
                                         0.0000  0.0000  0.0000  0.0000
   8. (1.99997) CR ( 1) O  4            s(100.00%)
                                         1.0000  0.0000  0.0000  0.0000  0.0000
                                         0.0000  0.0000  0.0000  0.0000  0.0000
                                         0.0000  0.0000  0.0000  0.0000
   9. (1.99997) CR ( 1) O  5            s(100.00%)
                                         1.0000  0.0000  0.0000  0.0000  0.0000
                                         0.0000  0.0000  0.0000  0.0000  0.0000
                                         0.0000  0.0000  0.0000  0.0000
  10. (1.97469) LP ( 1) O  1            s( 64.92%)p 0.54( 35.06%)d 0.00(  0.02%)
                                         0.0000  0.8057 -0.0064  0.3331  0.0007
                                        -0.3782 -0.0022 -0.3108 -0.0018  0.0076
                                         0.0065 -0.0071  0.0014  0.0010
  11. (1.82367) LP ( 2) O  1            s(  0.11%)p99.99( 99.79%)d 0.86(  0.10%)
                                         0.0000  0.0333 -0.0012  0.7969 -0.0040
                                         0.4100 -0.0015  0.4413 -0.0025  0.0084
                                         0.0040  0.0151 -0.0226  0.0112
  12. (1.82105) LP ( 3) O  1            s(  0.07%)p99.99( 99.83%)d 1.40(  0.10%)
                                         0.0000  0.0265  0.0014 -0.0891 -0.0001
                                        -0.6449  0.0010  0.7580 -0.0012  0.0092
                                        -0.0151  0.0060  0.0149  0.0204
  13. (1.97469) LP ( 1) O  3            s( 64.93%)p 0.54( 35.05%)d 0.00(  0.02%)
                                         0.0000  0.8058 -0.0064 -0.3329 -0.0007
                                         0.3895  0.0022 -0.2967 -0.0017  0.0079
                                        -0.0062  0.0070  0.0017  0.0014
  14. (1.82369) LP ( 2) O  3            s(  0.11%)p99.99( 99.79%)d 0.85(  0.10%)
                                         0.0000  0.0335 -0.0011 -0.7922  0.0040
                                        -0.3911  0.0016  0.4662 -0.0025  0.0091
                                        -0.0029 -0.0153 -0.0223  0.0113
  15. (1.82108) LP ( 3) O  3            s(  0.07%)p99.99( 99.84%)d 1.51(  0.10%)
                                         0.0000  0.0255  0.0015  0.1323 -0.0001
                                         0.6376 -0.0011  0.7578 -0.0011  0.0081
                                         0.0156 -0.0071  0.0159  0.0194
  16. (1.97786) LP ( 1) O  4            s( 48.24%)p 1.07( 51.72%)d 0.00(  0.04%)
                                         0.0000  0.6945 -0.0029  0.1200  0.0024
                                        -0.5890  0.0047  0.3947 -0.0050  0.0047
                                        -0.0061  0.0128  0.0137 -0.0002
  17. (1.93959) LP ( 2) O  4            s(  0.01%)p99.99( 99.92%)d 5.18(  0.07%)
                                         0.0000  0.0112 -0.0004 -0.3186  0.0043
                                        -0.5625  0.0061 -0.7623  0.0088 -0.0027
                                         0.0093 -0.0091  0.0142  0.0165
  18. (1.97786) LP ( 1) O  5            s( 48.20%)p 1.07( 51.75%)d 0.00(  0.04%)
                                         0.0000  0.6943 -0.0029 -0.1198 -0.0024
                                         0.5754 -0.0045  0.4148 -0.0051  0.0044
                                         0.0063 -0.0132  0.0133 -0.0009
  19. (1.93962) LP ( 2) O  5            s(  0.02%)p99.99( 99.92%)d 3.58(  0.07%)
                                         0.0000  0.0135 -0.0005  0.3248 -0.0044
                                         0.5860 -0.0064 -0.7417  0.0086 -0.0026
                                        -0.0094  0.0077  0.0145  0.0169
  20. (1.97906) BD ( 1) O  1- P  2
               ( 75.65%)   0.8698* O  1 s( 34.89%)p 1.86( 64.92%)d 0.01(  0.19%)
                                         0.0000  0.5905  0.0145 -0.4946 -0.0048
                                         0.5211  0.0047  0.3645  0.0029 -0.0293
                                        -0.0210  0.0228 -0.0021 -0.0077
               ( 24.35%)   0.4935* P  2 s( 29.43%)p 2.35( 69.23%)d 0.05(  1.34%)
                                         0.0000  0.0000  0.5424  0.0090  0.0000
                                         0.4629  0.0491  0.0000 -0.5152 -0.0606
                                         0.0000 -0.4521 -0.0460 -0.0813 -0.0542
                                         0.0544 -0.0086 -0.0284
  21. (1.97906) BD ( 1) P  2- O  3
               ( 24.35%)   0.4935* P  2 s( 29.43%)p 2.35( 69.23%)d 0.05(  1.34%)
                                         0.0000  0.0000  0.5425  0.0090  0.0000
                                        -0.4627 -0.0490  0.0000  0.5316  0.0624
                                         0.0000 -0.4329 -0.0437 -0.0832  0.0513
                                        -0.0520 -0.0105 -0.0318
               ( 75.65%)   0.8698* O  3 s( 34.89%)p 1.86( 64.92%)d 0.01(  0.19%)
                                         0.0000  0.5905  0.0144  0.4926  0.0048
                                        -0.5361 -0.0048  0.3451  0.0027 -0.0300
                                         0.0199 -0.0222 -0.0031 -0.0091
  22. (1.97877) BD ( 1) P  2- O  4
               ( 19.62%)   0.4429* P  2 s( 20.56%)p 3.75( 77.13%)d 0.11(  2.31%)
                                         0.0000  0.0000  0.4532 -0.0131  0.0000
                                        -0.5222 -0.0314  0.0000 -0.4662 -0.0471
                                         0.0000  0.5254  0.0451  0.0783 -0.1014
                                        -0.0767  0.0164  0.0241
               ( 80.38%)   0.8966* O  4 s( 29.87%)p 2.35( 70.05%)d 0.00(  0.08%)
                                         0.0000  0.5464 -0.0082  0.5223  0.0006
                                         0.4077 -0.0117 -0.5112  0.0079  0.0100
                                        -0.0120 -0.0224 -0.0065  0.0014
  23. (1.97881) BD ( 1) P  2- O  5
               ( 19.61%)   0.4429* P  2 s( 20.57%)p 3.75( 77.12%)d 0.11(  2.31%)
                                         0.0000  0.0000  0.4533 -0.0130  0.0000
                                         0.5217  0.0314  0.0000  0.4461  0.0454
                                         0.0000  0.5429  0.0467  0.0742  0.1043
                                         0.0743  0.0191  0.0293
               ( 80.39%)   0.8966* O  5 s( 29.90%)p 2.34( 70.02%)d 0.00(  0.08%)
                                         0.0000  0.5467 -0.0082 -0.5219 -0.0006
                                        -0.3888  0.0114 -0.5258  0.0082  0.0095
                                         0.0124  0.0224 -0.0057  0.0028
  24. (1.98657) BD ( 1) O  4- H  6
               ( 73.79%)   0.8590* O  4 s( 21.88%)p 3.56( 77.96%)d 0.01(  0.16%)
                                         0.0000  0.4672  0.0236 -0.7798 -0.0376
                                         0.4111  0.0083  0.0294  0.0097 -0.0331
                                         0.0060 -0.0073  0.0067 -0.0192
               ( 26.21%)   0.5120* H  6 s( 99.65%)p 0.00(  0.35%)
                                         0.9982 -0.0056  0.0520 -0.0280  0.0010
  25. (1.98658) BD ( 1) O  5- H  7
               ( 73.79%)   0.8590* O  5 s( 21.88%)p 3.56( 77.96%)d 0.01(  0.16%)
                                         0.0000  0.4672  0.0236  0.7776  0.0375
                                        -0.4159 -0.0088  0.0203  0.0096 -0.0330
                                        -0.0068  0.0080  0.0066 -0.0188
               ( 26.21%)   0.5120* H  7 s( 99.65%)p 0.00(  0.35%)
                                         0.9982 -0.0056 -0.0519  0.0282  0.0017
 ---------------- non-Lewis ----------------------------------------------------
  26. (0.13989) BD*( 1) O  1- P  2
               ( 24.35%)   0.4935* O  1 s( 34.89%)p 1.86( 64.92%)d 0.01(  0.19%)
                                         0.0000 -0.5905 -0.0145  0.4946  0.0048
                                        -0.5211 -0.0047 -0.3645 -0.0029  0.0293
                                         0.0210 -0.0228  0.0021  0.0077
               ( 75.65%)  -0.8698* P  2 s( 29.43%)p 2.35( 69.23%)d 0.05(  1.34%)
                                         0.0000  0.0000 -0.5424 -0.0090  0.0000
                                        -0.4629 -0.0491  0.0000  0.5152  0.0606
                                         0.0000  0.4521  0.0460  0.0813  0.0542
                                        -0.0544  0.0086  0.0284
  27. (0.13979) BD*( 1) P  2- O  3
               ( 75.65%)   0.8698* P  2 s( 29.43%)p 2.35( 69.23%)d 0.05(  1.34%)
                                         0.0000  0.0000  0.5425  0.0090  0.0000
                                        -0.4627 -0.0490  0.0000  0.5316  0.0624
                                         0.0000 -0.4329 -0.0437 -0.0832  0.0513
                                        -0.0520 -0.0105 -0.0318
               ( 24.35%)  -0.4935* O  3 s( 34.89%)p 1.86( 64.92%)d 0.01(  0.19%)
                                         0.0000  0.5905  0.0144  0.4926  0.0048
                                        -0.5361 -0.0048  0.3451  0.0027 -0.0300
                                         0.0199 -0.0222 -0.0031 -0.0091
  28. (0.25452) BD*( 1) P  2- O  4
               ( 80.38%)   0.8966* P  2 s( 20.56%)p 3.75( 77.13%)d 0.11(  2.31%)
                                         0.0000  0.0000  0.4532 -0.0131  0.0000
                                        -0.5222 -0.0314  0.0000 -0.4662 -0.0471
                                         0.0000  0.5254  0.0451  0.0783 -0.1014
                                        -0.0767  0.0164  0.0241
               ( 19.62%)  -0.4429* O  4 s( 29.87%)p 2.35( 70.05%)d 0.00(  0.08%)
                                         0.0000  0.5464 -0.0082  0.5223  0.0006
                                         0.4077 -0.0117 -0.5112  0.0079  0.0100
                                        -0.0120 -0.0224 -0.0065  0.0014
  29. (0.25436) BD*( 1) P  2- O  5
               ( 80.39%)   0.8966* P  2 s( 20.57%)p 3.75( 77.12%)d 0.11(  2.31%)
                                         0.0000  0.0000  0.4533 -0.0130  0.0000
                                         0.5217  0.0314  0.0000  0.4461  0.0454
                                         0.0000  0.5429  0.0467  0.0742  0.1043
                                         0.0743  0.0191  0.0293
               ( 19.61%)  -0.4429* O  5 s( 29.90%)p 2.34( 70.02%)d 0.00(  0.08%)
                                         0.0000  0.5467 -0.0082 -0.5219 -0.0006
                                        -0.3888  0.0114 -0.5258  0.0082  0.0095
                                         0.0124  0.0224 -0.0057  0.0028
  30. (0.00671) BD*( 1) O  4- H  6
               ( 26.21%)   0.5120* O  4 s( 21.88%)p 3.56( 77.96%)d 0.01(  0.16%)
                                         0.0000 -0.4672 -0.0236  0.7798  0.0376
                                        -0.4111 -0.0083 -0.0294 -0.0097  0.0331
                                        -0.0060  0.0073 -0.0067  0.0192
               ( 73.79%)  -0.8590* H  6 s( 99.65%)p 0.00(  0.35%)
                                        -0.9982  0.0056 -0.0520  0.0280 -0.0010
  31. (0.00671) BD*( 1) O  5- H  7
               ( 26.21%)   0.5120* O  5 s( 21.88%)p 3.56( 77.96%)d 0.01(  0.16%)
                                         0.0000 -0.4672 -0.0236 -0.7776 -0.0375
                                         0.4159  0.0088 -0.0203 -0.0096  0.0330
                                         0.0068 -0.0080 -0.0066  0.0188
               ( 73.79%)  -0.8590* H  7 s( 99.65%)p 0.00(  0.35%)
                                        -0.9982  0.0056  0.0519 -0.0282 -0.0017
  32. (0.00103) RY ( 1) O  1            s( 96.54%)p 0.02(  1.85%)d 0.02(  1.61%)
                                         0.0000 -0.0043  0.9825  0.0124  0.0546
                                        -0.0121  0.1229 -0.0064 -0.0072 -0.0981
                                         0.0292 -0.0001 -0.0432 -0.0613
  33. (0.00037) RY ( 2) O  1            s(  1.56%)p61.01( 95.22%)d 2.06(  3.22%)
                                         0.0000 -0.0012  0.1249 -0.0006 -0.7312
                                         0.0004 -0.6276 -0.0022 -0.1537  0.0075
                                         0.0542  0.0390  0.1661  0.0074
  34. (0.00015) RY ( 3) O  1            s(  0.00%)p 1.00( 90.11%)d 0.11(  9.89%)
                                         0.0000  0.0042  0.0035 -0.0119  0.1098
                                         0.0084  0.1037  0.0014 -0.9370  0.3066
                                         0.0598 -0.0073 -0.0269  0.0241
  35. (0.00004) RY ( 4) O  1            s(  0.70%)p13.04(  9.16%)d99.99( 90.14%)
  36. (0.00004) RY ( 5) O  1            s(  0.43%)p99.99( 77.73%)d50.94( 21.84%)
  37. (0.00003) RY ( 6) O  1            s(  0.51%)p 3.95(  2.02%)d99.99( 97.47%)
  38. (0.00001) RY ( 7) O  1            s(  0.04%)p99.99( 14.89%)d99.99( 85.06%)
  39. (0.00000) RY ( 8) O  1            s(  0.04%)p91.12(  3.33%)d99.99( 96.64%)
  40. (0.00000) RY ( 9) O  1            s(  0.17%)p35.31(  6.09%)d99.99( 93.74%)
  41. (0.06021) RY ( 1) P  2            s(  1.14%)p20.86( 23.68%)d66.23( 75.19%)
                                         0.0000  0.0000 -0.0213  0.1044  0.0000
                                        -0.0004  0.0006  0.0000 -0.0038  0.0088
                                         0.0000  0.1910 -0.4474 -0.7388 -0.0127
                                         0.0173 -0.1530 -0.4268
  42. (0.05744) RY ( 2) P  2            s(  0.00%)p 1.00( 26.05%)d 2.84( 73.95%)
                                         0.0000  0.0000  0.0001  0.0007  0.0000
                                         0.1049 -0.1897  0.0000  0.1708 -0.4292
                                         0.0000  0.0034 -0.0089  0.0143 -0.7909
                                        -0.3370 -0.0060 -0.0124
  43. (0.03832) RY ( 3) P  2            s(  0.00%)p 1.00( 44.64%)d 1.24( 55.36%)
                                         0.0000  0.0000  0.0000  0.0002  0.0000
                                         0.1253 -0.5285  0.0000 -0.0781  0.3810
                                         0.0000 -0.0015  0.0068 -0.0036  0.2224
                                        -0.7095 -0.0142 -0.0242
  44. (0.02690) RY ( 4) P  2            s(  0.05%)p 0.05(  0.00%)d99.99( 99.95%)
                                         0.0000  0.0000 -0.0094  0.0199  0.0000
                                         0.0001  0.0003  0.0000 -0.0002 -0.0004
                                         0.0000  0.0016  0.0048 -0.1554 -0.0016
                                        -0.0169  0.9839 -0.0833
  45. (0.01557) RY ( 5) P  2            s(  0.00%)p 1.00(  6.63%)d14.08( 93.37%)
                                         0.0000  0.0000 -0.0017  0.0033  0.0000
                                         0.0000 -0.0006  0.0000 -0.0007  0.0051
                                         0.0000  0.0293 -0.2558 -0.3594 -0.0074
                                        -0.0307  0.0196  0.8962
  46. (0.00958) RY ( 6) P  2            s(  0.00%)p 1.00( 54.81%)d 0.82( 45.19%)
                                         0.0000  0.0000  0.0000  0.0001  0.0000
                                        -0.0002 -0.4249  0.0000 -0.0151  0.6059
                                         0.0000 -0.0003  0.0114  0.0080 -0.4450
                                         0.5034  0.0109  0.0160
  47. (0.00397) RY ( 7) P  2            s( 15.94%)p 3.62( 57.62%)d 1.66( 26.45%)
                                         0.0000  0.0000  0.0052  0.3992  0.0000
                                        -0.0001  0.0015  0.0000  0.0000  0.0151
                                         0.0000 -0.0037 -0.7589  0.5085  0.0094
                                        -0.0007  0.0746 -0.0157
  48. (0.00139) RY ( 8) P  2            s(  0.00%)p 1.00( 78.89%)d 0.27( 21.11%)
                                         0.0000  0.0000 -0.0001  0.0003  0.0000
                                         0.0112  0.7052  0.0000  0.0105  0.5396
                                         0.0000  0.0002  0.0118  0.0053 -0.3161
                                        -0.3332 -0.0065 -0.0110
  49. (0.00035) RY ( 9) P  2            s( 82.89%)p 0.18( 14.99%)d 0.03(  2.12%)
                                         0.0000  0.0000  0.0026  0.9104  0.0000
                                        -0.0001 -0.0007  0.0000 -0.0002 -0.0077
                                         0.0000  0.0036  0.3871 -0.1297 -0.0019
                                        -0.0008 -0.0360  0.0557
  50. (0.00103) RY ( 1) O  3            s( 96.53%)p 0.02(  1.85%)d 0.02(  1.62%)
                                         0.0000 -0.0043  0.9825 -0.0124 -0.0546
                                         0.0123 -0.1227 -0.0059 -0.0125 -0.0972
                                        -0.0329  0.0057 -0.0430 -0.0612
  51. (0.00037) RY ( 2) O  3            s(  1.57%)p60.75( 95.21%)d 2.06(  3.22%)
                                         0.0000 -0.0012  0.1252  0.0006  0.7311
                                        -0.0003  0.6344 -0.0022 -0.1231  0.0091
                                        -0.0537 -0.0460  0.1647  0.0053
  52. (0.00015) RY ( 3) O  3            s(  0.00%)p 1.00( 90.10%)d 0.11(  9.89%)
                                         0.0000  0.0041  0.0037  0.0120 -0.1055
                                        -0.0084 -0.0635  0.0011 -0.9411  0.3086
                                        -0.0494  0.0061 -0.0258  0.0239
  53. (0.00004) RY ( 4) O  3            s(  0.71%)p12.57(  8.90%)d99.99( 90.39%)
  54. (0.00003) RY ( 5) O  3            s(  0.42%)p99.99( 77.88%)d51.88( 21.71%)
  55. (0.00003) RY ( 6) O  3            s(  0.52%)p 3.93(  2.04%)d99.99( 97.44%)
  56. (0.00001) RY ( 7) O  3            s(  0.04%)p99.99( 14.95%)d99.99( 85.00%)
  57. (0.00000) RY ( 8) O  3            s(  0.04%)p86.51(  3.33%)d99.99( 96.63%)
  58. (0.00000) RY ( 9) O  3            s(  0.17%)p35.47(  6.14%)d99.99( 93.69%)
  59. (0.00172) RY ( 1) O  4            s( 81.54%)p 0.21( 17.28%)d 0.01(  1.17%)
                                         0.0000  0.0010  0.9030  0.0098  0.3629
                                         0.0011  0.1414 -0.0035 -0.1450  0.0139
                                        -0.0875 -0.0492  0.0365  0.0115
  60. (0.00054) RY ( 2) O  4            s(  2.91%)p22.98( 66.89%)d10.37( 30.20%)
                                         0.0000 -0.0166  0.1698  0.0371 -0.6499
                                        -0.0050  0.4942 -0.0132  0.0247 -0.1592
                                        -0.2346  0.2867  0.3550 -0.1156
  61. (0.00023) RY ( 3) O  4            s(  0.09%)p99.99( 95.65%)d50.12(  4.27%)
                                         0.0000  0.0024  0.0291 -0.0029 -0.2702
                                         0.0021 -0.3523 -0.0100 -0.8713  0.0358
                                         0.0739  0.0770  0.0928  0.1462
  62. (0.00009) RY ( 4) O  4            s( 14.86%)p 4.21( 62.58%)d 1.52( 22.56%)
  63. (0.00008) RY ( 5) O  4            s(  0.03%)p49.68(  1.62%)d99.99( 98.35%)
  64. (0.00005) RY ( 6) O  4            s(  0.19%)p99.99( 38.59%)d99.99( 61.22%)
  65. (0.00001) RY ( 7) O  4            s(  0.16%)p25.27(  3.99%)d99.99( 95.85%)
  66. (0.00001) RY ( 8) O  4            s(  0.09%)p53.04(  4.78%)d99.99( 95.13%)
  67. (0.00000) RY ( 9) O  4            s(  0.12%)p72.07(  8.97%)d99.99( 90.91%)
  68. (0.00173) RY ( 1) O  5            s( 81.56%)p 0.21( 17.27%)d 0.01(  1.17%)
                                         0.0000  0.0010  0.9031 -0.0099 -0.3620
                                        -0.0009 -0.1362 -0.0036 -0.1515  0.0101
                                         0.0880  0.0466  0.0385  0.0151
  69. (0.00054) RY ( 2) O  5            s(  2.90%)p23.18( 67.17%)d10.33( 29.93%)
                                         0.0000 -0.0167  0.1694 -0.0371  0.6507
                                         0.0058 -0.4966 -0.0132  0.0099 -0.1686
                                         0.2297 -0.2911  0.3403 -0.1326
  70. (0.00023) RY ( 3) O  5            s(  0.07%)p99.99( 95.67%)d58.80(  4.26%)
                                         0.0000  0.0025  0.0268  0.0032  0.2713
                                        -0.0019  0.3803 -0.0101 -0.8593  0.0351
                                        -0.0689 -0.0904  0.0900  0.1427
  71. (0.00009) RY ( 4) O  5            s( 14.85%)p 4.19( 62.25%)d 1.54( 22.90%)
  72. (0.00008) RY ( 5) O  5            s(  0.02%)p79.88(  1.59%)d99.99( 98.39%)
  73. (0.00005) RY ( 6) O  5            s(  0.22%)p99.99( 38.69%)d99.99( 61.09%)
  74. (0.00001) RY ( 7) O  5            s(  0.16%)p24.32(  4.01%)d99.99( 95.83%)
  75. (0.00001) RY ( 8) O  5            s(  0.09%)p55.70(  4.79%)d99.99( 95.12%)
  76. (0.00000) RY ( 9) O  5            s(  0.13%)p71.06(  8.91%)d99.99( 90.97%)
  77. (0.00393) RY ( 1) H  6            s( 98.11%)p 0.02(  1.89%)
                                         0.0108  0.9904 -0.1224 -0.0394  0.0487
  78. (0.00146) RY ( 2) H  6            s(  0.04%)p99.99( 99.96%)
                                        -0.0011  0.0189  0.2961  0.5347  0.7912
  79. (0.00111) RY ( 3) H  6            s(  0.96%)p99.99( 99.04%)
                                         0.0049  0.0977  0.3172  0.7209 -0.6083
  80. (0.00002) RY ( 4) H  6            s(  1.25%)p79.22( 98.75%)
  81. (0.00392) RY ( 1) H  7            s( 98.10%)p 0.02(  1.90%)
                                         0.0108  0.9904  0.1224  0.0372  0.0513
  82. (0.00146) RY ( 2) H  7            s(  0.03%)p99.99( 99.97%)
                                        -0.0012  0.0186 -0.3035 -0.5597  0.7709
  83. (0.00111) RY ( 3) H  7            s(  0.97%)p99.99( 99.03%)
                                         0.0049  0.0982 -0.3168 -0.6984 -0.6341
  84. (0.00003) RY ( 4) H  7            s(  1.25%)p79.15( 98.75%)


 NHO DIRECTIONALITY AND BOND BENDING (deviation from line of nuclear centers at
                                      the position of maximum hybrid amplitude)

         [Thresholds for printing:  angular deviation  >  1.0 degree]
                                    p- or d-character  > 25.0%
                                    orbital occupancy  >  0.10e

                        Line of Centers        Hybrid 1             Hybrid 2
                        ---------------  -------------------  ------------------
           NBO            Theta   Phi    Theta   Phi    Dev   Theta   Phi    Dev
 ===============================================================================
  10. LP ( 1) O  1          --     --    122.0  311.1   --      --     --    --
  11. LP ( 2) O  1          --     --     63.2   28.2   --      --     --    --
  12. LP ( 3) O  1          --     --     39.9  261.1   --      --     --    --
  13. LP ( 1) O  3          --     --    120.4  130.3   --      --     --    --
  14. LP ( 2) O  3          --     --     61.6  207.3   --      --     --    --
  15. LP ( 3) O  3          --     --     39.9   77.2   --      --     --    --
  16. LP ( 1) O  4          --     --     57.0  282.3   --      --     --    --
  17. LP ( 2) O  4          --     --    140.3  239.7   --      --     --    --
  18. LP ( 1) O  5          --     --     55.0  102.6   --      --     --    --
  19. LP ( 2) O  5          --     --    138.5   60.3   --      --     --    --
  20. BD ( 1) O  1- P  2   62.3  133.1     --     --    --    125.7  309.0   8.7
  21. BD ( 1) P  2- O  3  116.1  132.2   124.1  128.4   8.6     --     --    --
  22. BD ( 1) P  2- O  4   51.1  221.2     --     --    --    128.0   39.3   1.8
  23. BD ( 1) P  2- O  5   49.7   39.9     --     --    --    129.3  218.1   1.8
  24. BD ( 1) O  4- H  6   91.7  148.6    88.7  151.5   4.1     --     --    --
  25. BD ( 1) O  5- H  7   92.4  328.4    89.3  331.2   4.1     --     --    --


 SECOND ORDER PERTURBATION THEORY ANALYSIS OF FOCK MATRIX IN NBO BASIS

     Threshold for printing:   0.50 kcal/mol
                                                          E(2) E(NL)-E(L) F(L,NL)
      Donor (L) NBO              Acceptor (NL) NBO      kcal/mol   a.u.    a.u.
 ===============================================================================

 within unit  1
   10. LP ( 1) O  1            27. BD*( 1) P  2- O  3      2.08    0.93   0.039
   10. LP ( 1) O  1            43. RY ( 3) P  2            1.19    1.36   0.036
   10. LP ( 1) O  1            46. RY ( 6) P  2            2.49    1.30   0.051
   10. LP ( 1) O  1            47. RY ( 7) P  2            0.76    1.18   0.027
   11. LP ( 2) O  1            27. BD*( 1) P  2- O  3      5.08    0.62   0.050
   11. LP ( 2) O  1            28. BD*( 1) P  2- O  4      6.07    0.46   0.047
   11. LP ( 2) O  1            29. BD*( 1) P  2- O  5     29.06    0.46   0.104
   11. LP ( 2) O  1            41. RY ( 1) P  2            0.69    1.14   0.025
   11. LP ( 2) O  1            42. RY ( 2) P  2            1.42    1.02   0.034
   11. LP ( 2) O  1            43. RY ( 3) P  2            1.38    1.06   0.034
   11. LP ( 2) O  1            44. RY ( 4) P  2            6.56    1.00   0.072
   12. LP ( 3) O  1            27. BD*( 1) P  2- O  3     16.12    0.62   0.089
   12. LP ( 3) O  1            28. BD*( 1) P  2- O  4     22.64    0.46   0.091
   12. LP ( 3) O  1            41. RY ( 1) P  2            4.08    1.14   0.061
   12. LP ( 3) O  1            42. RY ( 2) P  2            1.87    1.02   0.039
   12. LP ( 3) O  1            43. RY ( 3) P  2            0.87    1.05   0.027
   12. LP ( 3) O  1            44. RY ( 4) P  2            1.24    1.00   0.031
   12. LP ( 3) O  1            45. RY ( 5) P  2            1.88    0.94   0.037
   12. LP ( 3) O  1            46. RY ( 6) P  2            0.68    0.99   0.023
   13. LP ( 1) O  3            26. BD*( 1) O  1- P  2      2.08    0.93   0.039
   13. LP ( 1) O  3            43. RY ( 3) P  2            1.19    1.36   0.036
   13. LP ( 1) O  3            46. RY ( 6) P  2            2.49    1.30   0.051
   13. LP ( 1) O  3            47. RY ( 7) P  2            0.76    1.18   0.027
   14. LP ( 2) O  3            26. BD*( 1) O  1- P  2      6.10    0.62   0.055
   14. LP ( 2) O  3            28. BD*( 1) P  2- O  4     29.25    0.46   0.104
   14. LP ( 2) O  3            29. BD*( 1) P  2- O  5      4.86    0.46   0.042
   14. LP ( 2) O  3            41. RY ( 1) P  2            0.89    1.14   0.028
   14. LP ( 2) O  3            42. RY ( 2) P  2            1.23    1.02   0.032
   14. LP ( 2) O  3            43. RY ( 3) P  2            1.51    1.06   0.036
   14. LP ( 2) O  3            44. RY ( 4) P  2            6.21    1.00   0.070
   14. LP ( 2) O  3            45. RY ( 5) P  2            0.53    0.94   0.020
   15. LP ( 3) O  3            26. BD*( 1) O  1- P  2     15.09    0.62   0.086
   15. LP ( 3) O  3            29. BD*( 1) P  2- O  5     23.85    0.46   0.094
   15. LP ( 3) O  3            41. RY ( 1) P  2            3.88    1.14   0.059
   15. LP ( 3) O  3            42. RY ( 2) P  2            2.05    1.02   0.041
   15. LP ( 3) O  3            43. RY ( 3) P  2            0.74    1.05   0.025
   15. LP ( 3) O  3            44. RY ( 4) P  2            1.58    1.00   0.035
   15. LP ( 3) O  3            45. RY ( 5) P  2            1.78    0.94   0.037
   15. LP ( 3) O  3            46. RY ( 6) P  2            0.64    0.99   0.022
   16. LP ( 1) O  4            26. BD*( 1) O  1- P  2      0.68    0.92   0.022
   16. LP ( 1) O  4            27. BD*( 1) P  2- O  3      3.57    0.92   0.051
   16. LP ( 1) O  4            42. RY ( 2) P  2            0.59    1.32   0.025
   16. LP ( 1) O  4            44. RY ( 4) P  2            0.63    1.30   0.025
   16. LP ( 1) O  4            79. RY ( 3) H  6            0.70    2.34   0.036
   17. LP ( 2) O  4            26. BD*( 1) O  1- P  2      3.72    0.71   0.046
   17. LP ( 2) O  4            29. BD*( 1) P  2- O  5     11.90    0.55   0.072
   17. LP ( 2) O  4            45. RY ( 5) P  2            3.06    1.03   0.050
   17. LP ( 2) O  4            78. RY ( 2) H  6            1.97    2.01   0.056
   18. LP ( 1) O  5            26. BD*( 1) O  1- P  2      3.56    0.92   0.051
   18. LP ( 1) O  5            27. BD*( 1) P  2- O  3      0.69    0.92   0.023
   18. LP ( 1) O  5            42. RY ( 2) P  2            0.59    1.32   0.025
   18. LP ( 1) O  5            44. RY ( 4) P  2            0.63    1.30   0.026
   18. LP ( 1) O  5            83. RY ( 3) H  7            0.70    2.34   0.036
   19. LP ( 2) O  5            27. BD*( 1) P  2- O  3      3.65    0.71   0.045
   19. LP ( 2) O  5            28. BD*( 1) P  2- O  4     11.93    0.55   0.072
   19. LP ( 2) O  5            45. RY ( 5) P  2            3.07    1.03   0.050
   19. LP ( 2) O  5            82. RY ( 2) H  7            1.97    2.01   0.056
   20. BD ( 1) O  1- P  2      27. BD*( 1) P  2- O  3      1.52    1.14   0.037
   20. BD ( 1) O  1- P  2      28. BD*( 1) P  2- O  4      3.13    0.98   0.049
   20. BD ( 1) O  1- P  2      29. BD*( 1) P  2- O  5      4.39    0.98   0.058
   21. BD ( 1) P  2- O  3      26. BD*( 1) O  1- P  2      1.52    1.14   0.037
   21. BD ( 1) P  2- O  3      28. BD*( 1) P  2- O  4      4.38    0.98   0.058
   21. BD ( 1) P  2- O  3      29. BD*( 1) P  2- O  5      3.13    0.98   0.049
   22. BD ( 1) P  2- O  4      26. BD*( 1) O  1- P  2      2.55    1.08   0.047
   22. BD ( 1) P  2- O  4      27. BD*( 1) P  2- O  3      2.80    1.08   0.049
   22. BD ( 1) P  2- O  4      28. BD*( 1) P  2- O  4      0.80    0.92   0.024
   22. BD ( 1) P  2- O  4      29. BD*( 1) P  2- O  5      3.53    0.92   0.051
   22. BD ( 1) P  2- O  4      41. RY ( 1) P  2            0.57    1.60   0.027
   22. BD ( 1) P  2- O  4      42. RY ( 2) P  2            0.58    1.48   0.026
   22. BD ( 1) P  2- O  4      77. RY ( 1) H  6            0.84    1.13   0.028
   23. BD ( 1) P  2- O  5      26. BD*( 1) O  1- P  2      2.79    1.08   0.049
   23. BD ( 1) P  2- O  5      27. BD*( 1) P  2- O  3      2.53    1.08   0.047
   23. BD ( 1) P  2- O  5      28. BD*( 1) P  2- O  4      3.52    0.92   0.051
   23. BD ( 1) P  2- O  5      29. BD*( 1) P  2- O  5      0.80    0.92   0.024
   23. BD ( 1) P  2- O  5      41. RY ( 1) P  2            0.57    1.60   0.027
   23. BD ( 1) P  2- O  5      42. RY ( 2) P  2            0.58    1.48   0.026
   23. BD ( 1) P  2- O  5      81. RY ( 1) H  7            0.84    1.13   0.028
   24. BD ( 1) O  4- H  6      26. BD*( 1) O  1- P  2      2.47    1.08   0.046
   24. BD ( 1) O  4- H  6      27. BD*( 1) P  2- O  3      1.87    1.08   0.040
   24. BD ( 1) O  4- H  6      41. RY ( 1) P  2            0.51    1.60   0.026
   24. BD ( 1) O  4- H  6      42. RY ( 2) P  2            0.61    1.48   0.027
   25. BD ( 1) O  5- H  7      26. BD*( 1) O  1- P  2      1.86    1.08   0.040
   25. BD ( 1) O  5- H  7      27. BD*( 1) P  2- O  3      2.49    1.08   0.046
   25. BD ( 1) O  5- H  7      41. RY ( 1) P  2            0.51    1.60   0.026
   25. BD ( 1) O  5- H  7      42. RY ( 2) P  2            0.61    1.48   0.027


 NATURAL BOND ORBITALS (Summary):

                                                     Principal Delocalizations
           NBO                 Occupancy    Energy   (geminal,vicinal,remote)
 ===============================================================================
 Molecular unit  1  (H2O4P)
 ------ Lewis --------------------------------------
    1. CR ( 1) O  1             1.99997   -18.93659
    2. CR ( 1) P  2             2.00000   -63.61182
    3. CR ( 2) P  2             1.99997   -19.98169
    4. CR ( 3) P  2             1.99998    -4.63330
    5. CR ( 4) P  2             1.99998    -4.63286
    6. CR ( 5) P  2             1.99998    -4.63382
    7. CR ( 1) O  3             1.99997   -18.93664
    8. CR ( 1) O  4             1.99997   -19.01877
    9. CR ( 1) O  5             1.99997   -19.01861
   10. LP ( 1) O  1             1.97469    -0.35868  46(v),27(v),43(v),47(v)
   11. LP ( 2) O  1             1.82367    -0.05169  29(v),44(v),28(v),27(v)
                                                     42(v),43(v),41(v)
   12. LP ( 3) O  1             1.82105    -0.04804  28(v),27(v),41(v),45(v)
                                                     42(v),44(v),43(v),46(v)
   13. LP ( 1) O  3             1.97469    -0.35875  46(v),26(v),43(v),47(v)
   14. LP ( 2) O  3             1.82369    -0.05171  28(v),44(v),26(v),29(v)
                                                     43(v),42(v),41(v),45(v)
   15. LP ( 3) O  3             1.82108    -0.04805  29(v),26(v),41(v),42(v)
                                                     45(v),44(v),43(v),46(v)
   16. LP ( 1) O  4             1.97786    -0.35156  27(v),79(v),26(v),44(v)
                                                     42(v)
   17. LP ( 2) O  4             1.93959    -0.13523  29(v),26(v),45(v),78(v)
   18. LP ( 1) O  5             1.97786    -0.35124  26(v),83(v),27(v),44(v)
                                                     42(v)
   19. LP ( 2) O  5             1.93962    -0.13513  28(v),27(v),45(v),82(v)
   20. BD ( 1) O  1- P  2       1.97906    -0.56509  29(g),28(g),27(g)
   21. BD ( 1) P  2- O  3       1.97906    -0.56510  28(g),29(g),26(g)
   22. BD ( 1) P  2- O  4       1.97877    -0.51177  29(g),27(g),26(g),77(v)
                                                     28(g),42(g),41(g)
   23. BD ( 1) P  2- O  5       1.97881    -0.51187  28(g),26(g),27(g),81(v)
                                                     29(g),42(g),41(g)
   24. BD ( 1) O  4- H  6       1.98657    -0.51184  26(v),27(v),42(v),41(v)
   25. BD ( 1) O  5- H  7       1.98658    -0.51170  27(v),26(v),42(v),41(v)
 ------ non-Lewis ----------------------------------
   26. BD*( 1) O  1- P  2       0.13989     0.57110
   27. BD*( 1) P  2- O  3       0.13979     0.57101
   28. BD*( 1) P  2- O  4       0.25452     0.41259
   29. BD*( 1) P  2- O  5       0.25436     0.41281
   30. BD*( 1) O  4- H  6       0.00671     0.62290
   31. BD*( 1) O  5- H  7       0.00671     0.62296
   32. RY ( 1) O  1             0.00103     1.67879
   33. RY ( 2) O  1             0.00037     1.35803
   34. RY ( 3) O  1             0.00015     1.48248
   35. RY ( 4) O  1             0.00004     2.90986
   36. RY ( 5) O  1             0.00004     1.57086
   37. RY ( 6) O  1             0.00003     2.97562
   38. RY ( 7) O  1             0.00001     2.81463
   39. RY ( 8) O  1             0.00000     2.98121
   40. RY ( 9) O  1             0.00000     3.12781
   41. RY ( 1) P  2             0.06021     1.08808
   42. RY ( 2) P  2             0.05744     0.96791
   43. RY ( 3) P  2             0.03832     1.00404
   44. RY ( 4) P  2             0.02690     0.95004
   45. RY ( 5) P  2             0.01557     0.88996
   46. RY ( 6) P  2             0.00958     0.94456
   47. RY ( 7) P  2             0.00397     0.82057
   48. RY ( 8) P  2             0.00139     0.91192
   49. RY ( 9) P  2             0.00035     0.62239
   50. RY ( 1) O  3             0.00103     1.67868
   51. RY ( 2) O  3             0.00037     1.35816
   52. RY ( 3) O  3             0.00015     1.48221
   53. RY ( 4) O  3             0.00004     2.91379
   54. RY ( 5) O  3             0.00003     1.56922
   55. RY ( 6) O  3             0.00003     2.97533
   56. RY ( 7) O  3             0.00001     2.81749
   57. RY ( 8) O  3             0.00000     2.97937
   58. RY ( 9) O  3             0.00000     3.12472
   59. RY ( 1) O  4             0.00172     1.62538
   60. RY ( 2) O  4             0.00054     1.85104
   61. RY ( 3) O  4             0.00023     1.29855
   62. RY ( 4) O  4             0.00009     1.60581
   63. RY ( 5) O  4             0.00008     2.88074
   64. RY ( 6) O  4             0.00005     2.27624
   65. RY ( 7) O  4             0.00001     2.99992
   66. RY ( 8) O  4             0.00001     3.05445
   67. RY ( 9) O  4             0.00000     3.16424
   68. RY ( 1) O  5             0.00173     1.62494
   69. RY ( 2) O  5             0.00054     1.84634
   70. RY ( 3) O  5             0.00023     1.29762
   71. RY ( 4) O  5             0.00009     1.61307
   72. RY ( 5) O  5             0.00008     2.88187
   73. RY ( 6) O  5             0.00005     2.27361
   74. RY ( 7) O  5             0.00001     3.00073
   75. RY ( 8) O  5             0.00001     3.05570
   76. RY ( 9) O  5             0.00000     3.16327
   77. RY ( 1) H  6             0.00393     0.62122
   78. RY ( 2) H  6             0.00146     1.87856
   79. RY ( 3) H  6             0.00111     1.98857
   80. RY ( 4) H  6             0.00002     2.72298
   81. RY ( 1) H  7             0.00392     0.62137
   82. RY ( 2) H  7             0.00146     1.87875
   83. RY ( 3) H  7             0.00111     1.98865
   84. RY ( 4) H  7             0.00003     2.72306
          -------------------------------
                 Total Lewis   48.96245  ( 97.9249%)
           Valence non-Lewis    0.80198  (  1.6040%)
           Rydberg non-Lewis    0.23557  (  0.4711%)
          -------------------------------
               Total unit  1   50.00000  (100.0000%)
              Charge unit  1   -1.00000

 $CHOOSE
   LONE 1 3 3 3 4 2 5 2 END
   BOND S 1 2 S 2 3 S 2 4 S 2 5 S 4 6 S 5 7 END
 $END

 NBO analysis completed in 0.16 CPU seconds (0 wall seconds)
 Maximum scratch memory used by NBO was 412622 words (3.15 MB)
 Maximum scratch memory used by G16NBO was 19309 words (0.15 MB)

 Opening RunExU unformatted file "/home/javialra/scratch/Gau-2625547.EUF"
 Read unf file /home/javialra/scratch/Gau-2625547.EUF:
 Label Gaussian matrix elements                                         IVers= 2 NLab= 2 Version=ES64L-G16RevC.01
 Title NBO input                                                       
 NAtoms=     7 NBasis=    84 NBsUse=    84 ICharg=    -1 Multip=     1 NE=    50 Len12L=8 Len4L=8 IOpCl= 0 ICGU=111
 GAUSSIAN SCALARS                    NI= 1 NR= 1 NTot=       1 LenBuf=    2 NRI=1 N=    1000
 NPA CHARGES                         NI= 0 NR= 1 NTot=       7 LenBuf= 4000 NRI=1 N=       7
 Recovered energy= -642.814030894     dipole=     -0.002930321673     -0.021847311154      0.976543843359
 Unable to Open any file for archive entry.
 1\1\GINC-DALE\SP\RPBE1PBE\def2SVP\H2O4P1(1-)\JAVIALRA\31-May-2024\0\\#
  pbe1pbe def2svp pop=NBO7\\NBO input\\-1,1\O,0,-0.676208,0.721079,1.41
 2136\P,0,-0.073557,0.391526,0.076541\O,0,0.281918,1.374222,-1.002196\O
 ,0,1.314599,-0.504535,0.333005\O,0,-1.076312,-0.771609,-0.584158\H,0,1
 .881905,-0.217763,-0.391078\H,0,-1.652345,-0.992919,0.15585\\Version=E
 S64L-G16RevC.01\State=1-A\HF=-642.8140309\RMSD=2.820e-09\Dipole=0.1801
 45,-0.9425289,-0.1825127\Quadrupole=4.5550788,-0.8535881,-3.7014907,1.
 2141189,-0.8034198,0.3711012\PG=C01 [X(H2O4P1)]\\@
 The archive entry for this job was punched.


 NOTHING WILL BE ATTEMPTED IF ALL POSSIBLE OBJECTIONS
 MUST FIRST BE OVERCOME.

                               -- THE GOLDEN PRINCIPLE,
                    PAUL DICKSON'S "THE OFFICIAL RULES"
 Job cpu time:       0 days  0 hours  3 minutes 40.6 seconds.
 Elapsed time:       0 days  0 hours  0 minutes 14.9 seconds.
 File lengths (MBytes):  RWF=      6 Int=      0 D2E=      0 Chk=      1 Scr=      1
 Normal termination of Gaussian 16 at Fri May 31 18:40:09 2024.
