 Entering Gaussian System, Link 0=g16
 Input=r0_NBO_manual_order.com
 Output=r0_NBO_manual_order.log
 Initial command:
 /opt/gaussian/g16/C01/g16/l1.exe "/home/javialra/scratch/Gau-4180393.inp" -scrdir="/home/javialra/scratch/"
 Entering Link 1 = /opt/gaussian/g16/C01/g16/l1.exe PID=   4180394.
  
 Copyright (c) 1988-2019, Gaussian, Inc.  All Rights Reserved.
  
 This is part of the Gaussian(R) 16 program.  It is based on
 the Gaussian(R) 09 system (copyright 2009, Gaussian, Inc.),
 the Gaussian(R) 03 system (copyright 2003, Gaussian, Inc.),
 the Gaussian(R) 98 system (copyright 1998, Gaussian, Inc.),
 the Gaussian(R) 94 system (copyright 1995, Gaussian, Inc.),
 the Gaussian 92(TM) system (copyright 1992, Gaussian, Inc.),
 the Gaussian 90(TM) system (copyright 1990, Gaussian, Inc.),
 the Gaussian 88(TM) system (copyright 1988, Gaussian, Inc.),
 the Gaussian 86(TM) system (copyright 1986, Carnegie Mellon
 University), and the Gaussian 82(TM) system (copyright 1983,
 Carnegie Mellon University). Gaussian is a federally registered
 trademark of Gaussian, Inc.
  
 This software contains proprietary and confidential information,
 including trade secrets, belonging to Gaussian, Inc.
  
 This software is provided under written license and may be
 used, copied, transmitted, or stored only in accord with that
 written license.
  
 The following legend is applicable only to US Government
 contracts under FAR:
  
                    RESTRICTED RIGHTS LEGEND
  
 Use, reproduction and disclosure by the US Government is
 subject to restrictions as set forth in subparagraphs (a)
 and (c) of the Commercial Computer Software - Restricted
 Rights clause in FAR 52.227-19.
  
 Gaussian, Inc.
 340 Quinnipiac St., Bldg. 40, Wallingford CT 06492
  
  
 ---------------------------------------------------------------
 Warning -- This program may not be used in any manner that
 competes with the business of Gaussian, Inc. or will provide
 assistance to any competitor of Gaussian, Inc.  The licensee
 of this program is prohibited from giving any competitor of
 Gaussian, Inc. access to this program.  By using this program,
 the user acknowledges that Gaussian, Inc. is engaged in the
 business of creating and licensing software in the field of
 computational chemistry and represents and warrants to the
 licensee that it is not a competitor of Gaussian, Inc. and that
 it will not use this program in any manner prohibited above.
 ---------------------------------------------------------------
  

 Cite this work as:
 Gaussian 16, Revision C.01,
 M. J. Frisch, G. W. Trucks, H. B. Schlegel, G. E. Scuseria, 
 M. A. Robb, J. R. Cheeseman, G. Scalmani, V. Barone, 
 G. A. Petersson, H. Nakatsuji, X. Li, M. Caricato, A. V. Marenich, 
 J. Bloino, B. G. Janesko, R. Gomperts, B. Mennucci, H. P. Hratchian, 
 J. V. Ortiz, A. F. Izmaylov, J. L. Sonnenberg, D. Williams-Young, 
 F. Ding, F. Lipparini, F. Egidi, J. Goings, B. Peng, A. Petrone, 
 T. Henderson, D. Ranasinghe, V. G. Zakrzewski, J. Gao, N. Rega, 
 G. Zheng, W. Liang, M. Hada, M. Ehara, K. Toyota, R. Fukuda, 
 J. Hasegawa, M. Ishida, T. Nakajima, Y. Honda, O. Kitao, H. Nakai, 
 T. Vreven, K. Throssell, J. A. Montgomery, Jr., J. E. Peralta, 
 F. Ogliaro, M. J. Bearpark, J. J. Heyd, E. N. Brothers, K. N. Kudin, 
 V. N. Staroverov, T. A. Keith, R. Kobayashi, J. Normand, 
 K. Raghavachari, A. P. Rendell, J. C. Burant, S. S. Iyengar, 
 J. Tomasi, M. Cossi, J. M. Millam, M. Klene, C. Adamo, R. Cammi, 
 J. W. Ochterski, R. L. Martin, K. Morokuma, O. Farkas, 
 J. B. Foresman, and D. J. Fox, Gaussian, Inc., Wallingford CT, 2019.
 
 ******************************************
 Gaussian 16:  ES64L-G16RevC.01  3-Jul-2019
                19-Sep-2024 
 ******************************************
 %nprocshared=64
 Will use up to   64 processors via shared memory.
 %mem=64000MB
 --------------------------
 # pbe1pbe def2svp pop=NBO7
 --------------------------
 1/38=1,172=1/1;
 2/12=2,17=6,18=5,40=1/2;
 3/5=43,7=101,11=2,25=1,30=1,74=-13/1,2,3;
 4//1;
 5/5=2,38=5/2;
 6/7=2,8=2,9=2,10=2,28=1,40=1,113=1,114=1,124=3103/1,12;
 99/5=1,9=1/99;
 ---------
 NBO input
 ---------
 Symbolic Z-matrix:
 Charge =  0 Multiplicity = 1
 C                     0.68528  -1.60718   0.93601 
 Pd                   -0.06959  -0.22083   2.28288 
 P                    -0.56531   1.46679   3.78054 
 C                     1.90169   0.41666   2.40031 
 P                    -2.13061  -1.20571   1.93785 
 H                     0.02579  -2.47206   0.74661 
 H                     1.65254  -1.98946   1.29312 
 H                     0.84784  -1.08504  -0.02112 
 H                    -1.8316    1.71619   4.38595 
 H                     0.20787   1.52067   4.97104 
 H                    -0.31811   2.79843   3.35102 
 H                     2.03464   1.42668   2.82572 
 H                     2.44376  -0.29829   3.04076 
 H                     2.36008   0.40614   1.4008 
 H                    -3.37862  -0.76497   2.4674 
 H                    -2.26041  -2.57014   2.31246 
 H                    -2.55781  -1.35271   0.59105 
 
                          Input orientation:                          
 ---------------------------------------------------------------------
 Center     Atomic      Atomic             Coordinates (Angstroms)
 Number     Number       Type             X           Y           Z
 ---------------------------------------------------------------------
      1          6           0        0.685279   -1.607182    0.936006
      2         46           0       -0.069593   -0.220833    2.282880
      3         15           0       -0.565307    1.466787    3.780542
      4          6           0        1.901689    0.416662    2.400309
      5         15           0       -2.130605   -1.205707    1.937849
      6          1           0        0.025792   -2.472058    0.746605
      7          1           0        1.652535   -1.989459    1.293119
      8          1           0        0.847844   -1.085040   -0.021121
      9          1           0       -1.831595    1.716194    4.385951
     10          1           0        0.207867    1.520666    4.971041
     11          1           0       -0.318112    2.798428    3.351023
     12          1           0        2.034639    1.426680    2.825723
     13          1           0        2.443757   -0.298287    3.040759
     14          1           0        2.360080    0.406136    1.400801
     15          1           0       -3.378616   -0.764966    2.467399
     16          1           0       -2.260407   -2.570142    2.312458
     17          1           0       -2.557807   -1.352710    0.591052
 ---------------------------------------------------------------------
                    Distance matrix (angstroms):
                    1          2          3          4          5
     1  C    0.000000
     2  Pd   2.075058   0.000000
     3  P    4.370885   2.310148   0.000000
     4  C    2.778449   2.075125   3.015605   0.000000
     5  P    3.015638   2.310150   3.603873   4.370966   0.000000
     6  H    1.103996   2.727133   5.006862   3.820789   2.769974
     7  H    1.099659   2.659584   4.801222   2.660332   3.916898
     8  H    1.102339   2.626207   4.791812   3.037930   3.566971
     9  H    5.411248   3.358516   1.425556   4.423683   3.823626
    10  H    5.127657   3.214967   1.420559   3.270554   4.701257
    11  H    5.123329   3.212262   1.420866   3.391782   4.616848
    12  H    3.820487   2.727044   2.770019   1.103988   5.006699
    13  H    3.038986   2.626273   3.566123   1.102346   4.792140
    14  H    2.659782   2.659787   3.917402   1.099659   4.801324
    15  H    4.423769   3.358536   3.823581   5.411318   1.425555
    16  H    3.391014   3.212444   4.617947   5.123647   1.420867
    17  H    3.271293   3.214753   4.700262   5.127494   1.420554
                    6          7          8          9         10
     6  H    0.000000
     7  H    1.782659   0.000000
     8  H    1.785775   1.786821   0.000000
     9  H    5.851169   5.952868   5.869292   0.000000
    10  H    5.815570   5.285372   5.667535   2.130720   0.000000
    11  H    5.888912   5.571560   5.273721   2.129070   2.129269
    12  H    4.853695   3.763626   3.977655   4.179222   2.819276
    13  H    3.979319   2.557409   3.541331   4.913889   3.468974
    14  H    3.763094   2.500218   2.555841   5.310133   4.315184
    15  H    4.179149   5.309501   4.915093   3.497180   4.935099
    16  H    2.772764   4.085017   4.160810   4.780788   5.467646
    17  H    2.819950   4.315707   3.470571   4.934249   5.923643
                   11         12         13         14         15
    11  H    0.000000
    12  H    2.773638   0.000000
    13  H    4.160989   1.785813   0.000000
    14  H    4.086458   1.782645   1.786806   0.000000
    15  H    4.779671   5.851072   5.869119   5.953297   0.000000
    16  H    5.802816   5.889435   5.274553   5.571198   2.129098
    17  H    5.464945   5.814579   5.668202   5.285342   2.130692
                   16         17
    16  H    0.000000
    17  H    2.129278   0.000000
 Stoichiometry    C2H12P2Pd
 Framework group  C1[X(C2H12P2Pd)]
 Deg. of freedom    45
 Full point group                 C1      NOp   1
 Largest Abelian subgroup         C1      NOp   1
 Largest concise Abelian subgroup C1      NOp   1
                         Standard orientation:                         
 ---------------------------------------------------------------------
 Center     Atomic      Atomic             Coordinates (Angstroms)
 Number     Number       Type             X           Y           Z
 ---------------------------------------------------------------------
      1          6           0       -1.388921    1.789531    0.022357
      2         46           0       -0.000001    0.248018   -0.000088
      3         15           0        1.801852   -1.197678    0.008605
      4          6           0        1.389171    1.789398   -0.022159
      5         15           0       -1.801981   -1.197525   -0.008550
      6          1           0       -2.412214    1.492092   -0.266102
      7          1           0       -1.066440    2.595358   -0.652846
      8          1           0       -1.425373    2.188030    1.049499
      9          1           0        1.746715   -2.619438   -0.079524
     10          1           0        2.791120   -1.001786   -0.991877
     11          1           0        2.671769   -1.131468    1.130086
     12          1           0        2.412045    1.491852    0.267643
     13          1           0        1.426809    2.187119   -1.049567
     14          1           0        1.066226    2.595848    0.652078
     15          1           0       -1.746911   -2.619377    0.078112
     16          1           0       -2.673304   -1.130062   -1.128866
     17          1           0       -2.789944   -1.002528    0.993386
 ---------------------------------------------------------------------
 Rotational constants (GHZ):           2.2347126           1.6322830           0.9716068
 Standard basis: def2SVP (5D, 7F)
 There are   164 symmetry adapted cartesian basis functions of A   symmetry.
 There are   155 symmetry adapted basis functions of A   symmetry.
   155 basis functions,   273 primitive gaussians,   164 cartesian basis functions
    36 alpha electrons       36 beta electrons
       nuclear repulsion energy       421.6152275408 Hartrees.
 NAtoms=   17 NActive=   17 NUniq=   17 SFac= 1.00D+00 NAtFMM=   60 NAOKFM=F Big=F
 Integral buffers will be    131072 words long.
 Raffenetti 2 integral format.
 Two-electron integral symmetry is turned on.
 One-electron integrals computed using PRISM.
   1 Symmetry operations used in ECPInt.
 ECPInt:  NShTT=    2850 NPrTT=    9853 LenC2=    2822 LenP2D=    7926.
 LDataN:  DoStor=T MaxTD1= 7 Len=  274
 NBasis=   155 RedAO= T EigKep=  5.57D-03  NBF=   155
 NBsUse=   155 1.00D-06 EigRej= -1.00D+00 NBFU=   155
 Defaulting to unpruned grid for atomic number  46.
 ExpMin= 3.70D-02 ExpMax= 8.00D+03 ExpMxC= 1.20D+03 IAcc=3 IRadAn=         5 AccDes= 0.00D+00
 Harris functional with IExCor= 1009 and IRadAn=       5 diagonalized for initial guess.
 HarFok:  IExCor= 1009 AccDes= 0.00D+00 IRadAn=         5 IDoV= 1 UseB2=F ITyADJ=14
 ICtDFT=  3500011 ScaDFX=  1.000000  1.000000  1.000000  1.000000
 Defaulting to unpruned grid for atomic number  46.
 FoFCou: FMM=F IPFlag=           0 FMFlag=      100000 FMFlg1=           0
         NFxFlg=           0 DoJE=T BraDBF=F KetDBF=T FulRan=T
         wScrn=  0.000000 ICntrl=       500 IOpCl=  0 I1Cent=   200000004 NGrid=           0
         NMat0=    1 NMatS0=      1 NMatT0=    0 NMatD0=    1 NMtDS0=    0 NMtDT0=    0
 Petite list used in FoFCou.
 Requested convergence on RMS density matrix=1.00D-08 within 128 cycles.
 Requested convergence on MAX density matrix=1.00D-06.
 Requested convergence on             energy=1.00D-06.
 No special actions if energy rises.
 Defaulting to unpruned grid for atomic number  46.
 Defaulting to unpruned grid for atomic number  46.
 Defaulting to unpruned grid for atomic number  46.
 Defaulting to unpruned grid for atomic number  46.
 Defaulting to unpruned grid for atomic number  46.
 Defaulting to unpruned grid for atomic number  46.
 Defaulting to unpruned grid for atomic number  46.
 Defaulting to unpruned grid for atomic number  46.
 Defaulting to unpruned grid for atomic number  46.
 Defaulting to unpruned grid for atomic number  46.
 Defaulting to unpruned grid for atomic number  46.
 Defaulting to unpruned grid for atomic number  46.
 Defaulting to unpruned grid for atomic number  46.
 Defaulting to unpruned grid for atomic number  46.
 Defaulting to unpruned grid for atomic number  46.
 Defaulting to unpruned grid for atomic number  46.
 Defaulting to unpruned grid for atomic number  46.
 Defaulting to unpruned grid for atomic number  46.
 Defaulting to unpruned grid for atomic number  46.
 Defaulting to unpruned grid for atomic number  46.
 Defaulting to unpruned grid for atomic number  46.
 Defaulting to unpruned grid for atomic number  46.
 Defaulting to unpruned grid for atomic number  46.
 Defaulting to unpruned grid for atomic number  46.
 Defaulting to unpruned grid for atomic number  46.
 Defaulting to unpruned grid for atomic number  46.
 Defaulting to unpruned grid for atomic number  46.
 Defaulting to unpruned grid for atomic number  46.
 Defaulting to unpruned grid for atomic number  46.
 Defaulting to unpruned grid for atomic number  46.
 Defaulting to unpruned grid for atomic number  46.
 Defaulting to unpruned grid for atomic number  46.
 Defaulting to unpruned grid for atomic number  46.
 Defaulting to unpruned grid for atomic number  46.
 Defaulting to unpruned grid for atomic number  46.
 Defaulting to unpruned grid for atomic number  46.
 Defaulting to unpruned grid for atomic number  46.
 Defaulting to unpruned grid for atomic number  46.
 Defaulting to unpruned grid for atomic number  46.
 Defaulting to unpruned grid for atomic number  46.
 Defaulting to unpruned grid for atomic number  46.
 Defaulting to unpruned grid for atomic number  46.
 Defaulting to unpruned grid for atomic number  46.
 Defaulting to unpruned grid for atomic number  46.
 Defaulting to unpruned grid for atomic number  46.
 Defaulting to unpruned grid for atomic number  46.
 Defaulting to unpruned grid for atomic number  46.
 Defaulting to unpruned grid for atomic number  46.
 Defaulting to unpruned grid for atomic number  46.
 Defaulting to unpruned grid for atomic number  46.
 Defaulting to unpruned grid for atomic number  46.
 Defaulting to unpruned grid for atomic number  46.
 Defaulting to unpruned grid for atomic number  46.
 Defaulting to unpruned grid for atomic number  46.
 Defaulting to unpruned grid for atomic number  46.
 Defaulting to unpruned grid for atomic number  46.
 Defaulting to unpruned grid for atomic number  46.
 Defaulting to unpruned grid for atomic number  46.
 Defaulting to unpruned grid for atomic number  46.
 Defaulting to unpruned grid for atomic number  46.
 Defaulting to unpruned grid for atomic number  46.
 Defaulting to unpruned grid for atomic number  46.
 Defaulting to unpruned grid for atomic number  46.
 Defaulting to unpruned grid for atomic number  46.
 SCF Done:  E(RPBE1PBE) =  -893.353580436     A.U. after   11 cycles
            NFock= 11  Conv=0.98D-08     -V/T= 2.1027

 **********************************************************************

            Population analysis using the SCF Density.

 **********************************************************************

 Orbital symmetries:
       Occupied  (A) (A) (A) (A) (A) (A) (A) (A) (A) (A) (A) (A)
                 (A) (A) (A) (A) (A) (A) (A) (A) (A) (A) (A) (A)
                 (A) (A) (A) (A) (A) (A) (A) (A) (A) (A) (A) (A)
       Virtual   (A) (A) (A) (A) (A) (A) (A) (A) (A) (A) (A) (A)
                 (A) (A) (A) (A) (A) (A) (A) (A) (A) (A) (A) (A)
                 (A) (A) (A) (A) (A) (A) (A) (A) (A) (A) (A) (A)
                 (A) (A) (A) (A) (A) (A) (A) (A) (A) (A) (A) (A)
                 (A) (A) (A) (A) (A) (A) (A) (A) (A) (A) (A) (A)
                 (A) (A) (A) (A) (A) (A) (A) (A) (A) (A) (A) (A)
                 (A) (A) (A) (A) (A) (A) (A) (A) (A) (A) (A) (A)
                 (A) (A) (A) (A) (A) (A) (A) (A) (A) (A) (A) (A)
                 (A) (A) (A) (A) (A) (A) (A) (A) (A) (A) (A) (A)
                 (A) (A) (A) (A) (A) (A) (A) (A) (A) (A) (A)
 The electronic state is 1-A.
 Alpha  occ. eigenvalues --  -77.23625 -77.23623 -10.19151 -10.19150  -6.64612
 Alpha  occ. eigenvalues --   -6.64611  -4.78631  -4.78630  -4.78604  -4.78604
 Alpha  occ. eigenvalues --   -4.78291  -4.78289  -3.49346  -2.16894  -2.16594
 Alpha  occ. eigenvalues --   -2.13956  -0.69368  -0.68541  -0.65397  -0.63744
 Alpha  occ. eigenvalues --   -0.43824  -0.42289  -0.42284  -0.41953  -0.39805
 Alpha  occ. eigenvalues --   -0.38484  -0.38097  -0.37978  -0.36105  -0.34586
 Alpha  occ. eigenvalues --   -0.28084  -0.26557  -0.26509  -0.26260  -0.26167
 Alpha  occ. eigenvalues --   -0.21447
 Alpha virt. eigenvalues --   -0.00633   0.00237   0.00966   0.04039   0.04330
 Alpha virt. eigenvalues --    0.05003   0.05524   0.06591   0.06848   0.13990
 Alpha virt. eigenvalues --    0.14540   0.15974   0.16563   0.19113   0.19143
 Alpha virt. eigenvalues --    0.20804   0.22825   0.25926   0.30973   0.32801
 Alpha virt. eigenvalues --    0.33365   0.33909   0.36424   0.37327   0.37676
 Alpha virt. eigenvalues --    0.38823   0.39728   0.44292   0.46602   0.46934
 Alpha virt. eigenvalues --    0.49439   0.50896   0.53024   0.53637   0.54769
 Alpha virt. eigenvalues --    0.55206   0.58794   0.60377   0.63228   0.67103
 Alpha virt. eigenvalues --    0.67332   0.67803   0.69871   0.70147   0.71126
 Alpha virt. eigenvalues --    0.73017   0.73703   0.73955   0.76189   0.76377
 Alpha virt. eigenvalues --    0.78032   0.78332   0.80321   0.81738   0.83620
 Alpha virt. eigenvalues --    0.93213   0.94217   0.96106   0.98914   1.00683
 Alpha virt. eigenvalues --    1.01436   1.02506   1.08651   1.30481   1.30807
 Alpha virt. eigenvalues --    1.30918   1.37458   1.37575   1.38792   1.41453
 Alpha virt. eigenvalues --    1.49247   1.49931   1.51092   1.51562   1.58793
 Alpha virt. eigenvalues --    1.58875   1.66648   1.67485   1.69614   1.70538
 Alpha virt. eigenvalues --    1.75337   1.77172   1.78136   1.80012   1.81423
 Alpha virt. eigenvalues --    1.82585   1.82931   1.92183   1.99500   2.00158
 Alpha virt. eigenvalues --    2.01522   2.03802   2.09097   2.11271   2.20964
 Alpha virt. eigenvalues --    2.21889   2.22631   2.22837   2.26964   2.27188
 Alpha virt. eigenvalues --    2.40536   2.42042   2.42256   2.42924   2.43153
 Alpha virt. eigenvalues --    2.48180   2.48183   2.49208   2.51627   2.51846
 Alpha virt. eigenvalues --    2.52740   2.60790   2.76457   2.78456   2.96760
 Alpha virt. eigenvalues --    2.98498   2.99005   3.03980  51.60428
          Condensed to atoms (all electrons):
               1          2          3          4          5          6
     1  C    4.866724   0.250217  -0.021804   0.054730  -0.004053   0.367783
     2  Pd   0.250217  17.517326   0.161982   0.250223   0.161976  -0.021461
     3  P   -0.021804   0.161982  13.752406  -0.004061  -0.004592   0.000580
     4  C    0.054730   0.250223  -0.004061   4.866766  -0.021803   0.000672
     5  P   -0.004053   0.161976  -0.004592  -0.021803  13.752390  -0.013290
     6  H    0.367783  -0.021461   0.000580   0.000672  -0.013290   0.693435
     7  H    0.381520  -0.014693   0.000495  -0.011048   0.001635  -0.024865
     8  H    0.382263  -0.012842   0.000571  -0.008745  -0.000204  -0.026429
     9  H    0.000194  -0.008087   0.324441   0.001517  -0.004791  -0.000011
    10  H    0.000151  -0.008282   0.348807  -0.004773   0.000603  -0.000002
    11  H    0.000163  -0.006939   0.346845  -0.003420   0.000497   0.000001
    12  H    0.000669  -0.021470  -0.013283   0.367790   0.000580  -0.000054
    13  H   -0.008719  -0.012831  -0.000211   0.382240   0.000571   0.000110
    14  H   -0.011049  -0.014708   0.001638   0.381510   0.000495   0.000513
    15  H    0.001517  -0.008087  -0.004792   0.000194   0.324434   0.000269
    16  H   -0.003430  -0.006941   0.000498   0.000163   0.346852   0.000707
    17  H   -0.004764  -0.008278   0.000602   0.000151   0.348807   0.001240
               7          8          9         10         11         12
     1  C    0.381520   0.382263   0.000194   0.000151   0.000163   0.000669
     2  Pd  -0.014693  -0.012842  -0.008087  -0.008282  -0.006939  -0.021470
     3  P    0.000495   0.000571   0.324441   0.348807   0.346845  -0.013283
     4  C   -0.011048  -0.008745   0.001517  -0.004773  -0.003420   0.367790
     5  P    0.001635  -0.000204  -0.004791   0.000603   0.000497   0.000580
     6  H   -0.024865  -0.026429  -0.000011  -0.000002   0.000001  -0.000054
     7  H    0.624055  -0.018881  -0.000002  -0.000025   0.000004   0.000513
     8  H   -0.018881   0.624023  -0.000003   0.000007  -0.000032   0.000110
     9  H   -0.000002  -0.000003   0.702278  -0.016980  -0.016742   0.000269
    10  H   -0.000025   0.000007  -0.016980   0.655078  -0.020454   0.001246
    11  H    0.000004  -0.000032  -0.016742  -0.020454   0.655649   0.000698
    12  H    0.000513   0.000110   0.000269   0.001246   0.000698   0.693404
    13  H    0.000534   0.000877  -0.000061   0.000267   0.000093  -0.026427
    14  H    0.002903   0.000543  -0.000029   0.000057  -0.000068  -0.024858
    15  H   -0.000029  -0.000061   0.002407  -0.000015   0.000004  -0.000011
    16  H   -0.000068   0.000093   0.000003  -0.000004  -0.000004   0.000001
    17  H    0.000057   0.000264  -0.000015  -0.000003  -0.000004  -0.000002
              13         14         15         16         17
     1  C   -0.008719  -0.011049   0.001517  -0.003430  -0.004764
     2  Pd  -0.012831  -0.014708  -0.008087  -0.006941  -0.008278
     3  P   -0.000211   0.001638  -0.004792   0.000498   0.000602
     4  C    0.382240   0.381510   0.000194   0.000163   0.000151
     5  P    0.000571   0.000495   0.324434   0.346852   0.348807
     6  H    0.000110   0.000513   0.000269   0.000707   0.001240
     7  H    0.000534   0.002903  -0.000029  -0.000068   0.000057
     8  H    0.000877   0.000543  -0.000061   0.000093   0.000264
     9  H   -0.000061  -0.000029   0.002407   0.000003  -0.000015
    10  H    0.000267   0.000057  -0.000015  -0.000004  -0.000003
    11  H    0.000093  -0.000068   0.000004  -0.000004  -0.000004
    12  H   -0.026427  -0.024858  -0.000011   0.000001  -0.000002
    13  H    0.624033  -0.018881  -0.000003  -0.000032   0.000007
    14  H   -0.018881   0.624095  -0.000002   0.000004  -0.000025
    15  H   -0.000003  -0.000002   0.702291  -0.016741  -0.016981
    16  H   -0.000032   0.000004  -0.016741   0.655646  -0.020454
    17  H    0.000007  -0.000025  -0.016981  -0.020454   0.655065
 Mulliken charges:
               1
     1  C   -0.252112
     2  Pd  -0.197103
     3  P    0.109880
     4  C   -0.252107
     5  P    0.109892
     6  H    0.020803
     7  H    0.057893
     8  H    0.058446
     9  H    0.015612
    10  H    0.044321
    11  H    0.043709
    12  H    0.020828
    13  H    0.058432
    14  H    0.057862
    15  H    0.015605
    16  H    0.043707
    17  H    0.044333
 Sum of Mulliken charges =  -0.00000
 Mulliken charges with hydrogens summed into heavy atoms:
               1
     1  C   -0.114971
     2  Pd  -0.197103
     3  P    0.213522
     4  C   -0.114985
     5  P    0.213537
 Electronic spatial extent (au):  <R**2>=           1248.1186
 Charge=             -0.0000 electrons
 Dipole moment (field-independent basis, Debye):
    X=             -0.0002    Y=             -4.3180    Z=              0.0002  Tot=              4.3180
 Quadrupole moment (field-independent basis, Debye-Ang):
   XX=            -58.0650   YY=            -64.3885   ZZ=            -64.4974
   XY=             -0.0003   XZ=             -0.0680   YZ=             -0.0009
 Traceless Quadrupole moment (field-independent basis, Debye-Ang):
   XX=              4.2520   YY=             -2.0715   ZZ=             -2.1805
   XY=             -0.0003   XZ=             -0.0680   YZ=             -0.0009
 Octapole moment (field-independent basis, Debye-Ang**2):
  XXX=             -0.0035  YYY=             -5.9680  ZZZ=             -0.0033  XYY=              0.0001
  XXY=            -13.3798  XXZ=             -0.0032  XZZ=              0.0000  YZZ=              1.1109
  YYZ=             -0.0020  XYZ=             -0.4743
 Hexadecapole moment (field-independent basis, Debye-Ang**3):
 XXXX=           -902.4555 YYYY=           -728.7629 ZZZZ=           -115.9978 XXXY=             -0.0026
 XXXZ=              0.7743 YYYX=             -0.0013 YYYZ=              0.0015 ZZZX=             -0.6160
 ZZZY=             -0.0078 XXYY=           -286.4386 XXZZ=           -166.0772 YYZZ=           -136.4338
 XXYZ=             -0.0037 YYXZ=             -0.4155 ZZXY=              0.0001
 N-N= 4.216152275408D+02 E-N=-2.930328474841D+03  KE= 8.101244787946D+02
 Running external command "gaunbo7 R"
         input file       "/home/javialra/scratch/Gau-4180394.EIn"
         output file      "/home/javialra/scratch/Gau-4180394.EOu"
         message file     "/home/javialra/scratch/Gau-4180394.EMs"
         fchk file        "/home/javialra/scratch/Gau-4180394.EFC"
         mat. el file     "/home/javialra/scratch/Gau-4180394.EUF"

 Writing WrtUnf unformatted file "/home/javialra/scratch/Gau-4180394.EUF"
 Gaussian matrix elements                                         Version   2 NLab=11 Len12L=8 Len4L=8
 Write SHELL TO ATOM MAP                   from file      0 offset           0 length                  75 to matrix element file.
 Write SHELL TYPES                         from file      0 offset           0 length                  75 to matrix element file.
 Write NUMBER OF PRIMITIVES PER SHELL      from file      0 offset           0 length                  75 to matrix element file.
 Write PRIMITIVE EXPONENTS                 from file      0 offset           0 length                 139 to matrix element file.
 Write CONTRACTION COEFFICIENTS            from file      0 offset           0 length                 139 to matrix element file.
 Write P(S=P) CONTRACTION COEFFICIENTS     from file      0 offset           0 length                 139 to matrix element file.
 Write COORDINATES OF EACH SHELL           from file      0 offset           0 length                 225 to matrix element file.
 Write BONDS PER ATOM                      from file      0 offset           0 length                  17 to matrix element file.
 Write BONDED ATOMS                        from file      0 offset           0 length                  32 to matrix element file.
 Write BOND TYPES                          from file      0 offset           0 length                  32 to matrix element file.
 Write ONIOM CHARGE/MULT                   from file      0 offset           0 length                  32 to matrix element file.
 Write ONIOM ATOM LAYERS                   from file      0 offset           0 length                  17 to matrix element file.
 Write ONIOM ATOM MODIFIERS                from file      0 offset           0 length                  17 to matrix element file.
 Write ONIOM ATOM TYPES                    from file      0 offset           0 length                  17 to matrix element file.
 Write ONIOM LINK ATOMS                    from file      0 offset           0 length                  17 to matrix element file.
 Write ONIOM LINK CHARGES                  from file      0 offset           0 length                  17 to matrix element file.
 Write ONIOM LINK DISTANCES                from file      0 offset           0 length                  68 to matrix element file.
 Write SYMINF INTS                         from file      0 offset           0 length                  26 to matrix element file.
 Write ROTTR TO SO                         from file      0 offset           0 length                  12 to matrix element file.
 Write GAUSSIAN SCALARS                    from file    501 offset           0 to matrix element file.
 Write OPTIMIZATION FLAGS                  from file      0 offset           0 length                  17 to matrix element file.
 Write INTEGER ISO                         from file      0 offset           0 length                  17 to matrix element file.
 Write INTEGER SPIN                        from file      0 offset           0 length                  17 to matrix element file.
 Write REAL ZEFFECTIVE                     from file      0 offset           0 length                  17 to matrix element file.
 Write REAL GFACTOR                        from file      0 offset           0 length                  17 to matrix element file.
 Write REAL ZNUCLEAR                       from file      0 offset           0 length                  17 to matrix element file.
 Write MULLIKEN CHARGES                    from file      0 offset           0 length                  17 to matrix element file.
 Write NUCLEAR GRADIENT                    from file  10584 offset           0 length                  51 to matrix element file.
 Array NUCLEAR FORCE CONSTANTS              on  file  10585 does not exist.
 Write ELECTRIC DIPOLE MOMENT              from file      0 offset           0 length                   3 to matrix element file.
 Write NON-ADIABATIC COUPLING              from file  10810 offset           0 length                  51 to matrix element file.
 Write FINITE EM FIELD                     from file  10521 offset           0 length                  35 to matrix element file.
 Write OVERLAP                             from file  10514 offset           0 length               12090 to matrix element file.
 Write CORE HAMILTONIAN ALPHA              from file  10515 offset           0 length               12090 to matrix element file.
 Write CORE HAMILTONIAN BETA               from file  10515 offset       12090 length               12090 to matrix element file.
 Write KINETIC ENERGY                      from file  10516 offset           0 length               12090 to matrix element file.
 Write ORTHOGONAL BASIS                    from file  10685 offset           0 length               24025 to matrix element file.
 Write DIPOLE INTEGRALS                    from file  10518 offset           0 length               36270 to matrix element file.
 Array DIP VEL INTEGRALS                    on  file  10572 does not exist.
 Array R X DEL INTEGRALS                    on  file  10572 does not exist.
 Write ALPHA ORBITAL ENERGIES              from file      0 offset           0 length                 155 to matrix element file.
 Write ALPHA MO COEFFICIENTS               from file  10524 offset           0 length               24025 to matrix element file.
 Write ALPHA DENSITY MATRIX                from file      0 offset           0 length               12090 to matrix element file.
 Write ALPHA FOCK MATRIX                   from file  10536 offset           0 length               12090 to matrix element file.
 Write ENERGY-WEIGHTED DENSITY             from file  10571 offset           0 length               12090 to matrix element file.
 Write ALPHA SCF DENSITY MATRIX            from file      0 offset           0 length               12090 to matrix element file.
 No 2e integrals to process.
 Perform NBO analysis...executing G16NBO...

 *********************************** NBO 7.0 ***********************************
             N A T U R A L   A T O M I C   O R B I T A L   A N D
          N A T U R A L   B O N D   O R B I T A L   A N A L Y S I S
 *************************** Thijs Stuyver (I102501) ***************************
  (c) Copyright 1996-2021 Board of Regents of the University of Wisconsin System
      on behalf of the Theoretical Chemistry Institute.  All rights reserved.

          Cite this program [NBO 7.0.10 (8-Feb-2021)] as:

          NBO 7.0.  E. D. Glendening, J. K. Badenhoop, A. E. Reed,
          J. E. Carpenter, J. A. Bohmann, C. M. Morales, P. Karafiloglou,
          C. R. Landis, and F. Weinhold, Theoretical Chemistry Institute,
          University of Wisconsin, Madison, WI (2018)

 Filename set to /home/javialra/scratch/Gau-4180394

 Job title: NBO input


 NATURAL POPULATIONS:  Natural atomic orbital occupancies

  NAO Atom No lang   Type(AO)    Occupancy      Energy
 -------------------------------------------------------
   1    C  1  s      Cor( 1s)     1.99993     -10.19058
   2    C  1  s      Val( 2s)     1.22509      -0.20022
   3    C  1  s      Ryd( 3s)     0.00581       1.18773
   4    C  1  px     Val( 2p)     1.21470      -0.04631
   5    C  1  px     Ryd( 3p)     0.00467       0.85141
   6    C  1  py     Val( 2p)     1.25299      -0.06381
   7    C  1  py     Ryd( 3p)     0.00658       0.86326
   8    C  1  pz     Val( 2p)     1.22779      -0.04194
   9    C  1  pz     Ryd( 3p)     0.00397       0.63888
  10    C  1  dxy    Ryd( 3d)     0.00032       2.21851
  11    C  1  dxz    Ryd( 3d)     0.00019       2.17897
  12    C  1  dyz    Ryd( 3d)     0.00076       2.39038
  13    C  1  dx2y2  Ryd( 3d)     0.00073       2.27732
  14    C  1  dz2    Ryd( 3d)     0.00052       2.39646

  15   Pd  2  s      Cor( 4s)     1.99999      -3.49324
  16   Pd  2  s      Val( 5s)     0.52675       0.47552
  17   Pd  2  s      Ryd( 6s)     0.00260       1.05864
  18   Pd  2  s      Ryd( 7s)     0.00046       1.93550
  19   Pd  2  s      Ryd( 8s)     0.00002      44.27482
  20   Pd  2  px     Cor( 4p)     1.99984      -2.16844
  21   Pd  2  px     Ryd( 6p)     0.00110       0.88269
  22   Pd  2  px     Ryd( 5p)     0.00156       0.37599
  23   Pd  2  py     Cor( 4p)     1.99988      -2.16554
  24   Pd  2  py     Ryd( 6p)     0.00155       1.06447
  25   Pd  2  py     Ryd( 5p)     0.00149       0.79434
  26   Pd  2  pz     Cor( 4p)     1.99995      -2.13942
  27   Pd  2  pz     Ryd( 6p)     0.00340       0.47298
  28   Pd  2  pz     Ryd( 5p)     0.00119       0.21505
  29   Pd  2  dxy    Val( 4d)     1.44563      -0.26155
  30   Pd  2  dxy    Ryd( 5d)     0.00198       1.05817
  31   Pd  2  dxz    Val( 4d)     1.96481      -0.26940
  32   Pd  2  dxz    Ryd( 5d)     0.00198       0.61324
  33   Pd  2  dyz    Val( 4d)     1.94787      -0.26399
  34   Pd  2  dyz    Ryd( 5d)     0.00248       0.59055
  35   Pd  2  dx2y2  Val( 4d)     1.93877      -0.28930
  36   Pd  2  dx2y2  Ryd( 5d)     0.00310       0.73351
  37   Pd  2  dz2    Val( 4d)     1.96205      -0.26526
  38   Pd  2  dz2    Ryd( 5d)     0.00065       2.27500
  39   Pd  2  f(0)   Ryd( 4f)     0.00008       2.42890
  40   Pd  2  f(c1)  Ryd( 4f)     0.00014       2.43530
  41   Pd  2  f(s1)  Ryd( 4f)     0.00017       2.43582
  42   Pd  2  f(c2)  Ryd( 4f)     0.00001       2.40785
  43   Pd  2  f(s2)  Ryd( 4f)     0.00010       2.42316
  44   Pd  2  f(c3)  Ryd( 4f)     0.00019       2.44121
  45   Pd  2  f(s3)  Ryd( 4f)     0.00036       2.43864

  46    P  3  s      Cor( 1s)     2.00000     -67.03895
  47    P  3  s      Cor( 2s)     1.99995     -16.84198
  48    P  3  s      Val( 3s)     1.47845      -0.41044
  49    P  3  s      Ryd( 4s)     0.00572       0.89951
  50    P  3  px     Cor( 2p)     1.99998      -4.78376
  51    P  3  px     Val( 3p)     1.30032      -0.14834
  52    P  3  px     Ryd( 4p)     0.00649       0.85989
  53    P  3  py     Cor( 2p)     1.99998      -4.78534
  54    P  3  py     Val( 3p)     1.09316      -0.13099
  55    P  3  py     Ryd( 4p)     0.00278       0.80167
  56    P  3  pz     Cor( 2p)     1.99998      -4.78597
  57    P  3  pz     Val( 3p)     1.00513      -0.14640
  58    P  3  pz     Ryd( 4p)     0.00196       0.61495
  59    P  3  dxy    Ryd( 3d)     0.00129       1.02373
  60    P  3  dxz    Ryd( 3d)     0.01302       0.95859
  61    P  3  dyz    Ryd( 3d)     0.00093       0.66350
  62    P  3  dx2y2  Ryd( 3d)     0.01156       0.94067
  63    P  3  dz2    Ryd( 3d)     0.00344       0.86583

  64    C  4  s      Cor( 1s)     1.99993     -10.19058
  65    C  4  s      Val( 2s)     1.22509      -0.20022
  66    C  4  s      Ryd( 3s)     0.00581       1.18765
  67    C  4  px     Val( 2p)     1.21474      -0.04633
  68    C  4  px     Ryd( 3p)     0.00467       0.85131
  69    C  4  py     Val( 2p)     1.25296      -0.06379
  70    C  4  py     Ryd( 3p)     0.00657       0.86321
  71    C  4  pz     Val( 2p)     1.22775      -0.04193
  72    C  4  pz     Ryd( 3p)     0.00397       0.63894
  73    C  4  dxy    Ryd( 3d)     0.00032       2.21874
  74    C  4  dxz    Ryd( 3d)     0.00020       2.17952
  75    C  4  dyz    Ryd( 3d)     0.00076       2.38982
  76    C  4  dx2y2  Ryd( 3d)     0.00073       2.27712
  77    C  4  dz2    Ryd( 3d)     0.00052       2.39646

  78    P  5  s      Cor( 1s)     2.00000     -67.03900
  79    P  5  s      Cor( 2s)     1.99995     -16.84192
  80    P  5  s      Val( 3s)     1.47845      -0.41043
  81    P  5  s      Ryd( 4s)     0.00572       0.89946
  82    P  5  px     Cor( 2p)     1.99998      -4.78376
  83    P  5  px     Val( 3p)     1.30038      -0.14835
  84    P  5  px     Ryd( 4p)     0.00649       0.85991
  85    P  5  py     Cor( 2p)     1.99998      -4.78534
  86    P  5  py     Val( 3p)     1.09311      -0.13099
  87    P  5  py     Ryd( 4p)     0.00278       0.80162
  88    P  5  pz     Cor( 2p)     1.99998      -4.78597
  89    P  5  pz     Val( 3p)     1.00512      -0.14640
  90    P  5  pz     Ryd( 4p)     0.00196       0.61494
  91    P  5  dxy    Ryd( 3d)     0.00129       1.02358
  92    P  5  dxz    Ryd( 3d)     0.01303       0.95881
  93    P  5  dyz    Ryd( 3d)     0.00092       0.66342
  94    P  5  dx2y2  Ryd( 3d)     0.01156       0.94071
  95    P  5  dz2    Ryd( 3d)     0.00344       0.86570

  96    H  6  s      Val( 1s)     0.80302       0.11412
  97    H  6  s      Ryd( 2s)     0.00176       0.42914
  98    H  6  px     Ryd( 2p)     0.00082       2.34093
  99    H  6  py     Ryd( 2p)     0.00015       1.86206
 100    H  6  pz     Ryd( 2p)     0.00022       1.82770

 101    H  7  s      Val( 1s)     0.77578       0.13656
 102    H  7  s      Ryd( 2s)     0.00137       0.43441
 103    H  7  px     Ryd( 2p)     0.00019       1.86039
 104    H  7  py     Ryd( 2p)     0.00051       2.13079
 105    H  7  pz     Ryd( 2p)     0.00045       2.04041

 106    H  8  s      Val( 1s)     0.77962       0.12774
 107    H  8  s      Ryd( 2s)     0.00131       0.42949
 108    H  8  px     Ryd( 2p)     0.00010       1.81782
 109    H  8  py     Ryd( 2p)     0.00020       1.87739
 110    H  8  pz     Ryd( 2p)     0.00088       2.33551

 111    H  9  s      Val( 1s)     0.96145      -0.10682
 112    H  9  s      Ryd( 2s)     0.00141       0.39047
 113    H  9  px     Ryd( 2p)     0.00010       1.59165
 114    H  9  py     Ryd( 2p)     0.00240       2.03751
 115    H  9  pz     Ryd( 2p)     0.00013       1.53298

 116    H 10  s      Val( 1s)     0.94273      -0.10498
 117    H 10  s      Ryd( 2s)     0.00141       0.40477
 118    H 10  px     Ryd( 2p)     0.00134       1.78553
 119    H 10  py     Ryd( 2p)     0.00013       1.59116
 120    H 10  pz     Ryd( 2p)     0.00128       1.80622

 121    H 11  s      Val( 1s)     0.94377      -0.10600
 122    H 11  s      Ryd( 2s)     0.00146       0.40592
 123    H 11  px     Ryd( 2p)     0.00108       1.73142
 124    H 11  py     Ryd( 2p)     0.00009       1.57939
 125    H 11  pz     Ryd( 2p)     0.00160       1.87391

 126    H 12  s      Val( 1s)     0.80301       0.11412
 127    H 12  s      Ryd( 2s)     0.00176       0.42915
 128    H 12  px     Ryd( 2p)     0.00082       2.34043
 129    H 12  py     Ryd( 2p)     0.00015       1.86206
 130    H 12  pz     Ryd( 2p)     0.00022       1.82813

 131    H 13  s      Val( 1s)     0.77963       0.12773
 132    H 13  s      Ryd( 2s)     0.00131       0.42945
 133    H 13  px     Ryd( 2p)     0.00010       1.81785
 134    H 13  py     Ryd( 2p)     0.00020       1.87713
 135    H 13  pz     Ryd( 2p)     0.00088       2.33573

 136    H 14  s      Val( 1s)     0.77579       0.13657
 137    H 14  s      Ryd( 2s)     0.00137       0.43441
 138    H 14  px     Ryd( 2p)     0.00019       1.86061
 139    H 14  py     Ryd( 2p)     0.00051       2.13135
 140    H 14  pz     Ryd( 2p)     0.00045       2.03972

 141    H 15  s      Val( 1s)     0.96145      -0.10682
 142    H 15  s      Ryd( 2s)     0.00141       0.39047
 143    H 15  px     Ryd( 2p)     0.00010       1.59164
 144    H 15  py     Ryd( 2p)     0.00240       2.03758
 145    H 15  pz     Ryd( 2p)     0.00013       1.53291

 146    H 16  s      Val( 1s)     0.94376      -0.10599
 147    H 16  s      Ryd( 2s)     0.00146       0.40592
 148    H 16  px     Ryd( 2p)     0.00108       1.73200
 149    H 16  py     Ryd( 2p)     0.00009       1.57946
 150    H 16  pz     Ryd( 2p)     0.00159       1.87324

 151    H 17  s      Val( 1s)     0.94274      -0.10498
 152    H 17  s      Ryd( 2s)     0.00141       0.40476
 153    H 17  px     Ryd( 2p)     0.00134       1.78492
 154    H 17  py     Ryd( 2p)     0.00013       1.59103
 155    H 17  pz     Ryd( 2p)     0.00128       1.80699

 [28 electrons found in the effective core potential]


 Summary of Natural Population Analysis:

                                     Natural Population
             Natural    ---------------------------------------------
  Atom No    Charge        Core      Valence    Rydberg      Total
 --------------------------------------------------------------------
    C  1   -0.94405      1.99993     4.92056    0.02355     6.94405
   Pd  2    0.18989     35.99965     9.78588    0.02458    45.81011
    P  3    0.07586      9.99988     4.87706    0.04720    14.92414
    C  4   -0.94404      1.99993     4.92055    0.02355     6.94404
    P  5    0.07586      9.99988     4.87706    0.04720    14.92414
    H  6    0.19404      0.00000     0.80302    0.00294     0.80596
    H  7    0.22170      0.00000     0.77578    0.00252     0.77830
    H  8    0.21789      0.00000     0.77962    0.00249     0.78211
    H  9    0.03451      0.00000     0.96145    0.00404     0.96549
    H 10    0.05310      0.00000     0.94273    0.00416     0.94690
    H 11    0.05200      0.00000     0.94377    0.00423     0.94800
    H 12    0.19404      0.00000     0.80301    0.00294     0.80596
    H 13    0.21788      0.00000     0.77963    0.00249     0.78212
    H 14    0.22169      0.00000     0.77579    0.00252     0.77831
    H 15    0.03451      0.00000     0.96145    0.00404     0.96549
    H 16    0.05201      0.00000     0.94376    0.00423     0.94799
    H 17    0.05310      0.00000     0.94274    0.00416     0.94690
 ====================================================================
 * Total *  0.00000     59.99929    39.79386    0.20686   100.00000

                                 Natural Population
 ---------------------------------------------------------
   Effective Core            28.00000
   Core                      31.99929 ( 99.9978% of   32)
   Valence                   39.79386 ( 99.4846% of   40)
   Natural Minimal Basis     99.79314 ( 99.7931% of  100)
   Natural Rydberg Basis      0.20686 (  0.2069% of  100)
 ---------------------------------------------------------

    Atom No         Natural Electron Configuration
 ----------------------------------------------------------------------------
      C  1      [core]2s( 1.23)2p( 3.70)3s( 0.01)3p( 0.02)
     Pd  2      [core]5s( 0.53)4d( 9.26)5d( 0.01)6p( 0.01)
      P  3      [core]3s( 1.48)3p( 3.40)4s( 0.01)3d( 0.03)4p( 0.01)
      C  4      [core]2s( 1.23)2p( 3.70)3s( 0.01)3p( 0.02)
      P  5      [core]3s( 1.48)3p( 3.40)4s( 0.01)3d( 0.03)4p( 0.01)
      H  6            1s( 0.80)
      H  7            1s( 0.78)
      H  8            1s( 0.78)
      H  9            1s( 0.96)
      H 10            1s( 0.94)
      H 11            1s( 0.94)
      H 12            1s( 0.80)
      H 13            1s( 0.78)
      H 14            1s( 0.78)
      H 15            1s( 0.96)
      H 16            1s( 0.94)
      H 17            1s( 0.94)


 NATURAL BOND ORBITAL ANALYSIS:

                            Occupancies       Lewis Structure    Low   High
         Max    Occ     -------------------  -----------------   occ   occ
  Cycle  Ctr   Thresh    Lewis   non-Lewis     CR  BD  nC  LP    (L)   (NL)
 ============================================================================
    1     2     1.90    98.26706   1.73294     16  14   0   6     2      2
    2     2     1.70    98.41860   1.58140     16  13   0   7     1      2
    3     3     1.70    98.41860   1.58140     16  13   0   7     1      2
    4     2     1.70    98.41860   1.58140     16  13   0   7     1      2
 ----------------------------------------------------------------------------

 Strongly delocalized structure accepted

 -------------------------------------------------------
   Effective core           28.00000
   Core                     31.99929 ( 99.998% of  32)
   Valence Lewis            38.41931 ( 96.048% of  40)
  ==================      =============================
   Total Lewis              98.41860 ( 98.419% of 100)
  -----------------------------------------------------
   Valence non-Lewis         1.48380 (  1.484% of 100)
   Rydberg non-Lewis         0.09761 (  0.098% of 100)
  ==================      =============================
   Total non-Lewis           1.58140 (  1.581% of 100)
 -------------------------------------------------------


     (Occupancy)   Bond orbital / Coefficients / Hybrids
 ------------------ Lewis ------------------------------------------------------
   1. (1.99993) CR ( 1) C  1            s(100.00%)
                                         1.0000  0.0000  0.0000  0.0000  0.0000
                                         0.0000  0.0000  0.0000  0.0000  0.0000
                                         0.0000  0.0000  0.0000  0.0000
   2. (1.99999) CR ( 1)Pd  2            s(100.00%)
                                         1.0000  0.0000  0.0000  0.0000  0.0000
                                         0.0000  0.0000  0.0000  0.0000  0.0000
                                         0.0000  0.0000  0.0000  0.0000  0.0000
                                         0.0000  0.0000  0.0000  0.0000  0.0000
                                         0.0000  0.0000  0.0000  0.0000  0.0000
                                         0.0000  0.0000  0.0000  0.0000  0.0000
                                         0.0000
   3. (1.99984) CR ( 2)Pd  2            s(  0.00%)p 1.00(100.00%)
                                         0.0000  0.0000  0.0000  0.0000  0.0000
                                         1.0000  0.0000  0.0000  0.0000  0.0000
                                         0.0000  0.0000  0.0000  0.0000  0.0000
                                         0.0000  0.0000  0.0000  0.0000  0.0000
                                         0.0000  0.0000  0.0000  0.0000  0.0000
                                         0.0000  0.0000  0.0000  0.0000  0.0000
                                         0.0000
   4. (1.99988) CR ( 3)Pd  2            s(  0.00%)p 1.00(100.00%)
                                         0.0000  0.0000  0.0000  0.0000  0.0000
                                         0.0000  0.0000  0.0000  1.0000  0.0000
                                         0.0000  0.0000  0.0000  0.0000  0.0000
                                         0.0000  0.0000  0.0000  0.0000  0.0000
                                         0.0000  0.0000  0.0000  0.0000  0.0000
                                         0.0000  0.0000  0.0000  0.0000  0.0000
                                         0.0000
   5. (1.99995) CR ( 4)Pd  2            s(  0.00%)p 1.00(100.00%)
                                         0.0000  0.0000  0.0000  0.0000  0.0000
                                         0.0000  0.0000  0.0000  0.0000  0.0000
                                         0.0000  1.0000  0.0000  0.0000  0.0000
                                         0.0000  0.0000  0.0000  0.0000  0.0000
                                         0.0000  0.0000  0.0000  0.0000  0.0000
                                         0.0000  0.0000  0.0000  0.0000  0.0000
                                         0.0000
   6. (2.00000) CR ( 1) P  3            s(100.00%)
                                         1.0000  0.0000  0.0000  0.0000  0.0000
                                         0.0000  0.0000  0.0000  0.0000  0.0000
                                         0.0000  0.0000  0.0000  0.0000  0.0000
                                         0.0000  0.0000  0.0000
   7. (1.99995) CR ( 2) P  3            s(100.00%)
                                         0.0000  1.0000  0.0000  0.0000  0.0000
                                         0.0000  0.0000  0.0000  0.0000  0.0000
                                         0.0000  0.0000  0.0000  0.0000  0.0000
                                         0.0000  0.0000  0.0000
   8. (1.99998) CR ( 3) P  3            s(  0.00%)p 1.00(100.00%)
                                         0.0000  0.0000  0.0000  0.0000  1.0000
                                         0.0000  0.0000  0.0000  0.0000  0.0000
                                         0.0000  0.0000  0.0000  0.0000  0.0000
                                         0.0000  0.0000  0.0000
   9. (1.99998) CR ( 4) P  3            s(  0.00%)p 1.00(100.00%)
                                         0.0000  0.0000  0.0000  0.0000  0.0000
                                         0.0000  0.0000  1.0000  0.0000  0.0000
                                         0.0000  0.0000  0.0000  0.0000  0.0000
                                         0.0000  0.0000  0.0000
  10. (1.99998) CR ( 5) P  3            s(  0.00%)p 1.00(100.00%)
                                         0.0000  0.0000  0.0000  0.0000  0.0000
                                         0.0000  0.0000  0.0000  0.0000  0.0000
                                         1.0000  0.0000  0.0000  0.0000  0.0000
                                         0.0000  0.0000  0.0000
  11. (1.99993) CR ( 1) C  4            s(100.00%)
                                         1.0000  0.0000  0.0000  0.0000  0.0000
                                         0.0000  0.0000  0.0000  0.0000  0.0000
                                         0.0000  0.0000  0.0000  0.0000
  12. (2.00000) CR ( 1) P  5            s(100.00%)
                                         1.0000  0.0000  0.0000  0.0000  0.0000
                                         0.0000  0.0000  0.0000  0.0000  0.0000
                                         0.0000  0.0000  0.0000  0.0000  0.0000
                                         0.0000  0.0000  0.0000
  13. (1.99995) CR ( 2) P  5            s(100.00%)
                                         0.0000  1.0000  0.0000  0.0000  0.0000
                                         0.0000  0.0000  0.0000  0.0000  0.0000
                                         0.0000  0.0000  0.0000  0.0000  0.0000
                                         0.0000  0.0000  0.0000
  14. (1.99998) CR ( 3) P  5            s(  0.00%)p 1.00(100.00%)
                                         0.0000  0.0000  0.0000  0.0000  1.0000
                                         0.0000  0.0000  0.0000  0.0000  0.0000
                                         0.0000  0.0000  0.0000  0.0000  0.0000
                                         0.0000  0.0000  0.0000
  15. (1.99998) CR ( 4) P  5            s(  0.00%)p 1.00(100.00%)
                                         0.0000  0.0000  0.0000  0.0000  0.0000
                                         0.0000  0.0000  1.0000  0.0000  0.0000
                                         0.0000  0.0000  0.0000  0.0000  0.0000
                                         0.0000  0.0000  0.0000
  16. (1.99998) CR ( 5) P  5            s(  0.00%)p 1.00(100.00%)
                                         0.0000  0.0000  0.0000  0.0000  0.0000
                                         0.0000  0.0000  0.0000  0.0000  0.0000
                                         1.0000  0.0000  0.0000  0.0000  0.0000
                                         0.0000  0.0000  0.0000
  17. (1.29459) LP ( 1) C  1            s( 17.39%)p 4.75( 82.60%)d 0.00(  0.02%)
                                         0.0000  0.4145 -0.0453  0.5838 -0.0334
                                        -0.6929  0.0478 -0.0401  0.0026 -0.0112
                                        -0.0002 -0.0003 -0.0022 -0.0056
  18. (1.98513) LP ( 1)Pd  2            s(  1.48%)p 0.00(  0.00%)d66.55( 98.51%)
                                                  f 0.00(  0.00%)
                                         0.0000  0.1184  0.0266  0.0085 -0.0004
                                         0.0000  0.0000  0.0000  0.0000 -0.0026
                                         0.0064  0.0000  0.0000  0.0000  0.0000
                                         0.0000  0.0012 -0.0003 -0.0003  0.0000
                                         0.0756 -0.0010  0.9897 -0.0028  0.0000
                                         0.0000 -0.0030  0.0000  0.0002  0.0000
                                         0.0007
  19. (1.96552) LP ( 2)Pd  2            s(  0.00%)p 0.00(  0.00%)d 1.00(100.00%)
                                                  f 0.00(  0.00%)
                                         0.0000  0.0016  0.0001  0.0000 -0.0001
                                         0.0000  0.0000  0.0000  0.0000  0.0001
                                        -0.0006  0.0000  0.0000  0.0000 -0.0001
                                         0.0000  0.9998 -0.0184  0.0000  0.0000
                                         0.0090 -0.0002 -0.0021  0.0003  0.0000
                                         0.0000  0.0001  0.0000 -0.0044  0.0000
                                        -0.0001
  20. (1.95150) LP ( 3)Pd  2            s(  0.00%)p 1.00(  0.14%)d99.99( 99.86%)
                                                  f 0.01(  0.00%)
                                         0.0000  0.0000  0.0000  0.0000  0.0000
                                         0.0000 -0.0001 -0.0010  0.0000  0.0000
                                         0.0000  0.0000 -0.0343  0.0150  0.0011
                                        -0.0015  0.0000  0.0000  0.9991 -0.0209
                                        -0.0007  0.0000  0.0004  0.0000  0.0031
                                         0.0000  0.0000  0.0023  0.0000  0.0001
                                         0.0000
  21. (1.93944) LP ( 4)Pd  2            s(  0.03%)p 0.44(  0.01%)d99.99( 99.96%)
                                                  f 0.11(  0.00%)
                                         0.0000  0.0156  0.0059  0.0019  0.0000
                                         0.0000  0.0000  0.0000  0.0000 -0.0084
                                         0.0072  0.0000  0.0000  0.0000  0.0001
                                         0.0000  0.0091  0.0003 -0.0007  0.0000
                                        -0.9968 -0.0159  0.0740  0.0059  0.0000
                                         0.0000  0.0000  0.0000  0.0000  0.0000
                                         0.0056
  22. (1.70740) LP ( 1) P  3            s( 57.29%)p 0.75( 42.69%)d 0.00(  0.02%)
                                         0.0000  0.0000  0.7565 -0.0244  0.0000
                                        -0.5672  0.0427  0.0000  0.3202 -0.0273
                                         0.0000 -0.0109  0.0004 -0.0129 -0.0002
                                         0.0000  0.0028 -0.0058
  23. (1.70739) LP ( 1) P  5            s( 57.29%)p 0.75( 42.69%)d 0.00(  0.02%)
                                         0.0000  0.0000  0.7565 -0.0244  0.0000
                                         0.5672 -0.0427  0.0000  0.3201 -0.0273
                                         0.0000  0.0105 -0.0004  0.0129 -0.0002
                                         0.0000  0.0028 -0.0058
  24. (1.99328) BD ( 1) C  1- H  6
               ( 59.87%)   0.7738* C  1 s( 27.90%)p 2.58( 72.04%)d 0.00(  0.06%)
                                         0.0000  0.5280  0.0151 -0.7563 -0.0213
                                        -0.3077  0.0067 -0.2305 -0.0081  0.0080
                                         0.0093  0.0020  0.0179 -0.0101
               ( 40.13%)   0.6334* H  6 s( 99.89%)p 0.00(  0.11%)
                                         0.9994 -0.0010  0.0313  0.0061  0.0095
  25. (1.99530) BD ( 1) C  1- H  7
               ( 61.23%)   0.7825* C  1 s( 27.71%)p 2.61( 72.24%)d 0.00(  0.05%)
                                         0.0000  0.5263  0.0134  0.2907 -0.0030
                                         0.5912  0.0161 -0.5365 -0.0151  0.0057
                                        -0.0045 -0.0178 -0.0115  0.0002
               ( 38.77%)   0.6226* H  7 s( 99.88%)p 0.00(  0.12%)
                                         0.9994 -0.0012 -0.0119 -0.0244  0.0215
  26. (1.99525) BD ( 1) C  1- H  8
               ( 60.98%)   0.7809* C  1 s( 27.01%)p 2.70( 72.94%)d 0.00(  0.05%)
                                         0.0000  0.5196  0.0110  0.0062 -0.0085
                                         0.2697  0.0130  0.8099  0.0215 -0.0025
                                        -0.0038  0.0147 -0.0034  0.0165
               ( 39.02%)   0.6246* H  8 s( 99.88%)p 0.00(  0.12%)
                                         0.9994 -0.0011 -0.0009 -0.0120 -0.0327
  27. (1.98290) BD ( 1)Pd  2- C  4
               ( 52.95%)   0.7277*Pd  2 s(  7.81%)p 0.01(  0.04%)d11.80( 92.14%)
                                                  f 0.00(  0.01%)
                                         0.0000  0.2794  0.0022 -0.0055 -0.0007
                                         0.0000  0.0099  0.0105  0.0000  0.0121
                                         0.0084  0.0000  0.0006 -0.0006  0.9587
                                         0.0303 -0.0004 -0.0001 -0.0010  0.0001
                                         0.0017  0.0141 -0.0336  0.0030  0.0001
                                        -0.0033 -0.0046  0.0000  0.0000 -0.0041
                                         0.0052
               ( 47.05%)   0.6859* C  4 s( 19.42%)p 4.15( 80.57%)d 0.00(  0.02%)
                                         0.0000  0.4396 -0.0300 -0.5667  0.0229
                                        -0.6938  0.0314  0.0405 -0.0009  0.0120
                                         0.0000  0.0002 -0.0033 -0.0060
  28. (1.98188) BD ( 1) P  3- H  9
               ( 52.39%)   0.7238* P  3 s( 12.77%)p 6.77( 86.47%)d 0.06(  0.76%)
                                         0.0000  0.0000  0.3560  0.0319  0.0000
                                        -0.0496 -0.0256  0.0000 -0.9262 -0.0147
                                         0.0000 -0.0587 -0.0029  0.0015 -0.0002
                                         0.0087 -0.0771 -0.0395
               ( 47.61%)   0.6900* H  9 s( 99.76%)p 0.00(  0.24%)
                                         0.9988 -0.0052  0.0012  0.0486  0.0030
  29. (1.98867) BD ( 1) P  3- H 10
               ( 53.23%)   0.7296* P  3 s( 15.11%)p 5.57( 84.17%)d 0.05(  0.72%)
                                         0.0000  0.0000  0.3882  0.0199  0.0000
                                         0.6162  0.0030  0.0000  0.1546  0.0123
                                         0.0000 -0.6612 -0.0275  0.0127 -0.0718
                                        -0.0070  0.0390  0.0172
               ( 46.77%)   0.6839* H 10 s( 99.74%)p 0.00(  0.26%)
                                         0.9987 -0.0051 -0.0352 -0.0081  0.0356
  30. (1.98855) BD ( 1) P  3- H 11
               ( 53.16%)   0.7291* P  3 s( 14.98%)p 5.63( 84.31%)d 0.05(  0.72%)
                                         0.0000  0.0000  0.3865  0.0200  0.0000
                                         0.5387 -0.0001  0.0000  0.0693  0.0096
                                         0.0000  0.7396  0.0300  0.0035  0.0720
                                        -0.0018  0.0311  0.0320
               ( 46.84%)   0.6844* H 11 s( 99.74%)p 0.00(  0.26%)
                                         0.9987 -0.0050 -0.0310 -0.0034 -0.0400
  31. (1.99298) BD ( 1) C  4- H 12
               ( 59.84%)   0.7736* C  4 s( 26.71%)p 2.74( 73.23%)d 0.00(  0.06%)
                                         0.0000  0.5166  0.0159  0.7714  0.0207
                                        -0.2892  0.0058  0.2304  0.0082 -0.0083
                                         0.0093 -0.0021  0.0180 -0.0099
               ( 40.16%)   0.6337* H 12 s( 99.89%)p 0.00(  0.11%)
                                         0.9994 -0.0010 -0.0313  0.0061 -0.0096
  32. (1.99518) BD ( 1) C  4- H 13
               ( 60.98%)   0.7809* C  4 s( 26.47%)p 2.78( 73.48%)d 0.00(  0.05%)
                                         0.0000  0.5144  0.0113  0.0017  0.0082
                                         0.2775  0.0126 -0.8106 -0.0215  0.0024
                                        -0.0039 -0.0147 -0.0033  0.0165
               ( 39.02%)   0.6247* H 13 s( 99.88%)p 0.00(  0.12%)
                                         0.9994 -0.0011  0.0008 -0.0120  0.0327
  33. (1.99527) BD ( 1) C  4- H 14
               ( 61.23%)   0.7825* C  4 s( 27.37%)p 2.65( 72.58%)d 0.00(  0.05%)
                                         0.0000  0.5230  0.0136 -0.2867  0.0028
                                         0.5970  0.0159  0.5354  0.0151 -0.0059
                                        -0.0045  0.0178 -0.0115  0.0002
               ( 38.77%)   0.6227* H 14 s( 99.88%)p 0.00(  0.12%)
                                         0.9994 -0.0012  0.0119 -0.0244 -0.0214
  34. (1.98188) BD ( 1) P  5- H 15
               ( 52.39%)   0.7238* P  5 s( 12.77%)p 6.77( 86.47%)d 0.06(  0.76%)
                                         0.0000  0.0000  0.3560  0.0319  0.0000
                                         0.0495  0.0256  0.0000 -0.9263 -0.0147
                                         0.0000  0.0577  0.0028 -0.0015 -0.0002
                                        -0.0085 -0.0771 -0.0395
               ( 47.61%)   0.6900* H 15 s( 99.76%)p 0.00(  0.24%)
                                         0.9988 -0.0052 -0.0012  0.0486 -0.0030
  35. (1.98854) BD ( 1) P  5- H 16
               ( 53.16%)   0.7291* P  5 s( 14.98%)p 5.63( 84.30%)d 0.05(  0.72%)
                                         0.0000  0.0000  0.3865  0.0201  0.0000
                                        -0.5397  0.0000  0.0000  0.0701  0.0096
                                         0.0000 -0.7389 -0.0300 -0.0036  0.0720
                                         0.0017  0.0312  0.0319
               ( 46.84%)   0.6844* H 16 s( 99.74%)p 0.00(  0.26%)
                                         0.9987 -0.0050  0.0311 -0.0035  0.0400
  36. (1.98867) BD ( 1) P  5- H 17
               ( 53.23%)   0.7296* P  5 s( 15.11%)p 5.57( 84.17%)d 0.05(  0.72%)
                                         0.0000  0.0000  0.3882  0.0199  0.0000
                                        -0.6154 -0.0030  0.0000  0.1540  0.0123
                                         0.0000  0.6622  0.0275 -0.0126 -0.0719
                                         0.0069  0.0389  0.0174
               ( 46.77%)   0.6839* H 17 s( 99.74%)p 0.00(  0.26%)
                                         0.9987 -0.0051  0.0351 -0.0081 -0.0356
 ---------------- non-Lewis ----------------------------------------------------
  37. (0.58069) LV ( 1)Pd  2            s( 90.69%)p 0.00(  0.01%)d 0.10(  9.30%)
                                                  f 0.00(  0.00%)
                                         0.0000  0.9522 -0.0098 -0.0059 -0.0001
                                         0.0000  0.0025  0.0029  0.0000  0.0076
                                         0.0061  0.0000  0.0001  0.0001 -0.2817
                                        -0.0111 -0.0018 -0.0010  0.0003  0.0000
                                         0.0060  0.0188 -0.1141 -0.0094  0.0000
                                        -0.0008 -0.0051  0.0000 -0.0002 -0.0007
                                         0.0028
  38. (0.00683) BD*( 1) C  1- H  6
               ( 40.13%)   0.6334* C  1 s( 27.90%)p 2.58( 72.04%)d 0.00(  0.06%)
                                         0.0000 -0.5280 -0.0151  0.7563  0.0213
                                         0.3077 -0.0067  0.2305  0.0081 -0.0080
                                        -0.0093 -0.0020 -0.0179  0.0101
               ( 59.87%)  -0.7738* H  6 s( 99.89%)p 0.00(  0.11%)
                                        -0.9994  0.0010 -0.0313 -0.0061 -0.0095
  39. (0.00516) BD*( 1) C  1- H  7
               ( 38.77%)   0.6226* C  1 s( 27.71%)p 2.61( 72.24%)d 0.00(  0.05%)
                                         0.0000 -0.5263 -0.0134 -0.2907  0.0030
                                        -0.5912 -0.0161  0.5365  0.0151 -0.0057
                                         0.0045  0.0178  0.0115 -0.0002
               ( 61.23%)  -0.7825* H  7 s( 99.88%)p 0.00(  0.12%)
                                        -0.9994  0.0012  0.0119  0.0244 -0.0215
  40. (0.00336) BD*( 1) C  1- H  8
               ( 39.02%)   0.6246* C  1 s( 27.01%)p 2.70( 72.94%)d 0.00(  0.05%)
                                         0.0000 -0.5196 -0.0110 -0.0062  0.0085
                                        -0.2697 -0.0130 -0.8099 -0.0215  0.0025
                                         0.0038 -0.0147  0.0034 -0.0165
               ( 60.98%)  -0.7809* H  8 s( 99.88%)p 0.00(  0.12%)
                                        -0.9994  0.0011  0.0009  0.0120  0.0327
  41. (0.68427) BD*( 1)Pd  2- C  4
               ( 47.05%)   0.6859*Pd  2 s(  7.81%)p 0.01(  0.04%)d11.80( 92.14%)
                                                  f 0.00(  0.01%)
                                         0.0000 -0.2794 -0.0022  0.0055  0.0007
                                         0.0000 -0.0099 -0.0105  0.0000 -0.0121
                                        -0.0084  0.0000 -0.0006  0.0006 -0.9587
                                        -0.0303  0.0004  0.0001  0.0010 -0.0001
                                        -0.0017 -0.0141  0.0336 -0.0030 -0.0001
                                         0.0033  0.0046  0.0000  0.0000  0.0041
                                        -0.0052
               ( 52.95%)  -0.7277* C  4 s( 19.42%)p 4.15( 80.57%)d 0.00(  0.02%)
                                         0.0000 -0.4396  0.0300  0.5667 -0.0229
                                         0.6938 -0.0314 -0.0405  0.0009 -0.0120
                                         0.0000 -0.0002  0.0033  0.0060
  42. (0.03846) BD*( 1) P  3- H  9
               ( 47.61%)   0.6900* P  3 s( 12.77%)p 6.77( 86.47%)d 0.06(  0.76%)
                                         0.0000  0.0000 -0.3560 -0.0319  0.0000
                                         0.0496  0.0256  0.0000  0.9262  0.0147
                                         0.0000  0.0587  0.0029 -0.0015  0.0002
                                        -0.0087  0.0771  0.0395
               ( 52.39%)  -0.7238* H  9 s( 99.76%)p 0.00(  0.24%)
                                        -0.9988  0.0052 -0.0012 -0.0486 -0.0030
  43. (0.02842) BD*( 1) P  3- H 10
               ( 46.77%)   0.6839* P  3 s( 15.11%)p 5.57( 84.17%)d 0.05(  0.72%)
                                         0.0000  0.0000 -0.3882 -0.0199  0.0000
                                        -0.6162 -0.0030  0.0000 -0.1546 -0.0123
                                         0.0000  0.6612  0.0275 -0.0127  0.0718
                                         0.0070 -0.0390 -0.0172
               ( 53.23%)  -0.7296* H 10 s( 99.74%)p 0.00(  0.26%)
                                        -0.9987  0.0051  0.0352  0.0081 -0.0356
  44. (0.02771) BD*( 1) P  3- H 11
               ( 46.84%)   0.6844* P  3 s( 14.98%)p 5.63( 84.31%)d 0.05(  0.72%)
                                         0.0000  0.0000 -0.3865 -0.0200  0.0000
                                        -0.5387  0.0001  0.0000 -0.0693 -0.0096
                                         0.0000 -0.7396 -0.0300 -0.0035 -0.0720
                                         0.0018 -0.0311 -0.0320
               ( 53.16%)  -0.7291* H 11 s( 99.74%)p 0.00(  0.26%)
                                        -0.9987  0.0050  0.0310  0.0034  0.0400
  45. (0.00594) BD*( 1) C  4- H 12
               ( 40.16%)   0.6337* C  4 s( 26.71%)p 2.74( 73.23%)d 0.00(  0.06%)
                                         0.0000 -0.5166 -0.0159 -0.7714 -0.0207
                                         0.2892 -0.0058 -0.2304 -0.0082  0.0083
                                        -0.0093  0.0021 -0.0180  0.0099
               ( 59.84%)  -0.7736* H 12 s( 99.89%)p 0.00(  0.11%)
                                        -0.9994  0.0010  0.0313 -0.0061  0.0096
  46. (0.00326) BD*( 1) C  4- H 13
               ( 39.02%)   0.6247* C  4 s( 26.47%)p 2.78( 73.48%)d 0.00(  0.05%)
                                         0.0000 -0.5144 -0.0113 -0.0017 -0.0082
                                        -0.2775 -0.0126  0.8106  0.0215 -0.0024
                                         0.0039  0.0147  0.0033 -0.0165
               ( 60.98%)  -0.7809* H 13 s( 99.88%)p 0.00(  0.12%)
                                        -0.9994  0.0011 -0.0008  0.0120 -0.0327
  47. (0.00509) BD*( 1) C  4- H 14
               ( 38.77%)   0.6227* C  4 s( 27.37%)p 2.65( 72.58%)d 0.00(  0.05%)
                                         0.0000 -0.5230 -0.0136  0.2867 -0.0028
                                        -0.5970 -0.0159 -0.5354 -0.0151  0.0059
                                         0.0045 -0.0178  0.0115 -0.0002
               ( 61.23%)  -0.7825* H 14 s( 99.88%)p 0.00(  0.12%)
                                        -0.9994  0.0012 -0.0119  0.0244  0.0214
  48. (0.03847) BD*( 1) P  5- H 15
               ( 47.61%)   0.6900* P  5 s( 12.77%)p 6.77( 86.47%)d 0.06(  0.76%)
                                         0.0000  0.0000 -0.3560 -0.0319  0.0000
                                        -0.0495 -0.0256  0.0000  0.9263  0.0147
                                         0.0000 -0.0577 -0.0028  0.0015  0.0002
                                         0.0085  0.0771  0.0395
               ( 52.39%)  -0.7238* H 15 s( 99.76%)p 0.00(  0.24%)
                                        -0.9988  0.0052  0.0012 -0.0486  0.0030
  49. (0.02772) BD*( 1) P  5- H 16
               ( 46.84%)   0.6844* P  5 s( 14.98%)p 5.63( 84.30%)d 0.05(  0.72%)
                                         0.0000  0.0000 -0.3865 -0.0201  0.0000
                                         0.5397  0.0000  0.0000 -0.0701 -0.0096
                                         0.0000  0.7389  0.0300  0.0036 -0.0720
                                        -0.0017 -0.0312 -0.0319
               ( 53.16%)  -0.7291* H 16 s( 99.74%)p 0.00(  0.26%)
                                        -0.9987  0.0050 -0.0311  0.0035 -0.0400
  50. (0.02841) BD*( 1) P  5- H 17
               ( 46.77%)   0.6839* P  5 s( 15.11%)p 5.57( 84.17%)d 0.05(  0.72%)
                                         0.0000  0.0000 -0.3882 -0.0199  0.0000
                                         0.6154  0.0030  0.0000 -0.1540 -0.0123
                                         0.0000 -0.6622 -0.0275  0.0126  0.0719
                                        -0.0069 -0.0389 -0.0174
               ( 53.23%)  -0.7296* H 17 s( 99.74%)p 0.00(  0.26%)
                                        -0.9987  0.0051 -0.0351  0.0081  0.0356
  51. (0.00628) RY ( 1) C  1            s( 39.78%)p 1.51( 59.99%)d 0.01(  0.23%)
                                         0.0000  0.0373  0.6296  0.0402  0.4823
                                        -0.0491 -0.6022 -0.0004 -0.0233 -0.0240
                                        -0.0024  0.0037 -0.0091 -0.0408
  52. (0.00308) RY ( 2) C  1            s(  0.00%)p 1.00( 95.38%)d 0.05(  4.62%)
                                         0.0000 -0.0015  0.0057  0.0030 -0.0630
                                        -0.0012 -0.0073  0.0218 -0.9743 -0.0221
                                        -0.1125  0.1750 -0.0147  0.0470
  53. (0.00186) RY ( 3) C  1            s(  0.06%)p99.99( 94.07%)d97.47(  5.87%)
                                         0.0000 -0.0010  0.0245 -0.0082  0.7426
                                        -0.0025  0.6217  0.0012 -0.0513 -0.0179
                                         0.0271  0.0506  0.2321 -0.0342
  54. (0.00016) RY ( 4) C  1            s( 41.11%)p 0.62( 25.61%)d 0.81( 33.28%)
                                         0.0000 -0.0268  0.6406  0.0215 -0.3888
                                        -0.0079  0.3223 -0.0008  0.0227  0.3822
                                         0.0310  0.0198  0.3719  0.2171
  55. (0.00010) RY ( 5) C  1            s(  5.18%)p 1.55(  8.03%)d16.76( 86.79%)
  56. (0.00002) RY ( 6) C  1            s(  0.11%)p45.20(  4.76%)d99.99( 95.13%)
  57. (0.00001) RY ( 7) C  1            s(  0.06%)p 7.06(  0.44%)d99.99( 99.50%)
  58. (0.00001) RY ( 8) C  1            s(  8.21%)p 0.97(  8.00%)d10.21( 83.80%)
  59. (0.00000) RY ( 9) C  1            s(  5.49%)p 0.71(  3.92%)d16.51( 90.60%)
  60. (0.00498) RY ( 1)Pd  2            s( 10.21%)p 3.59( 36.63%)d 4.53( 46.28%)
                                                  f 0.67(  6.87%)
                                         0.0000 -0.0216  0.2451 -0.2015 -0.0311
                                         0.0000  0.0839  0.0975  0.0000  0.5320
                                         0.2583  0.0000  0.0052 -0.0025 -0.0173
                                        -0.0356  0.0006  0.0165  0.0003 -0.0010
                                        -0.0089  0.6166 -0.0010  0.2841 -0.0001
                                        -0.0281 -0.1525 -0.0003 -0.0009 -0.0306
                                         0.2091
  61. (0.00301) RY ( 2)Pd  2            s(  0.01%)p 1.00( 48.68%)d 1.04( 50.79%)
                                                  f 0.01(  0.52%)
                                         0.0000 -0.0011 -0.0065  0.0066  0.0009
                                         0.0000  0.0984  0.2012  0.0000 -0.0187
                                        -0.0025  0.0000  0.5393 -0.3813 -0.0017
                                        -0.0376  0.0000 -0.0004  0.0097 -0.7110
                                         0.0005 -0.0296  0.0001 -0.0087 -0.0261
                                        -0.0476  0.0045 -0.0277  0.0001 -0.0374
                                        -0.0060
  62. (0.00280) RY ( 3)Pd  2            s(  0.11%)p99.99( 80.83%)d99.99( 10.78%)
                                                  f78.35(  8.28%)
                                         0.0000 -0.0048 -0.0212  0.0240  0.0028
                                         0.0000  0.5745  0.6743  0.0000 -0.0682
                                        -0.0025  0.0000 -0.1100  0.0833 -0.0027
                                        -0.2424 -0.0001 -0.0019 -0.0008  0.1863
                                         0.0020 -0.1160  0.0005 -0.0293  0.0063
                                        -0.1878  0.0157  0.0052  0.0003 -0.2164
                                        -0.0207
  63. (0.00168) RY ( 4)Pd  2            s(  9.39%)p 5.17( 48.55%)d 4.25( 39.88%)
                                                  f 0.23(  2.18%)
                                         0.0000  0.0081  0.2937 -0.0830 -0.0264
                                         0.0000 -0.0280 -0.0365  0.0000  0.0450
                                         0.6938  0.0000 -0.0002  0.0000 -0.0030
                                         0.0119  0.0012  0.0652 -0.0001 -0.0019
                                         0.0167 -0.6043 -0.0143  0.1694  0.0000
                                         0.0093 -0.0875  0.0001 -0.0112  0.0111
                                         0.1176
  64. (0.00132) RY ( 5)Pd  2            s(  0.40%)p 1.46(  0.58%)d99.99( 98.58%)
                                                  f 1.10(  0.44%)
                                         0.0000 -0.0014  0.0593 -0.0214  0.0031
                                         0.0000 -0.0012 -0.0020  0.0000 -0.0175
                                         0.0743  0.0000 -0.0001 -0.0002 -0.0002
                                         0.0005 -0.0180 -0.9925  0.0000 -0.0003
                                         0.0000 -0.0023 -0.0021 -0.0202  0.0001
                                         0.0005 -0.0165  0.0000  0.0542  0.0005
                                        -0.0345
  65. (0.00092) RY ( 6)Pd  2            s( 79.50%)p 0.25( 19.53%)d 0.00(  0.31%)
                                                  f 0.01(  0.66%)
                                         0.0000  0.0095  0.8259 -0.3239  0.0884
                                         0.0000  0.0011  0.0019  0.0000 -0.2237
                                        -0.3812  0.0000 -0.0001 -0.0002  0.0002
                                        -0.0005  0.0002  0.0338  0.0000  0.0001
                                         0.0022 -0.0339 -0.0187 -0.0222  0.0000
                                        -0.0004  0.0494  0.0000 -0.0025 -0.0005
                                        -0.0640
  66. (0.00051) RY ( 7)Pd  2            s(  0.00%)p 1.00( 93.23%)d 0.01(  0.63%)
                                                  f 0.07(  6.14%)
                                         0.0000  0.0000  0.0003  0.0000  0.0001
                                         0.0000 -0.1345  0.1335  0.0000 -0.0003
                                         0.0006  0.0000  0.5790  0.7490 -0.0013
                                         0.0495  0.0000 -0.0002  0.0109  0.0614
                                         0.0000  0.0003  0.0000 -0.0001 -0.2427
                                        -0.0065  0.0000 -0.0095  0.0001  0.0485
                                        -0.0002
  67. (0.00038) RY ( 8)Pd  2            s(  0.00%)p 1.00( 91.84%)d 0.05(  4.28%)
                                                  f 0.04(  3.88%)
                                         0.0000  0.0002  0.0018  0.0000  0.0001
                                         0.0000 -0.6407  0.6800  0.0000 -0.0019
                                         0.0061  0.0000 -0.1912 -0.0947 -0.0064
                                         0.2059  0.0000  0.0004 -0.0048 -0.0174
                                         0.0000  0.0041 -0.0001 -0.0019  0.0520
                                         0.0622  0.0001  0.0085  0.0005  0.1794
                                        -0.0012
  68. (0.00032) RY ( 9)Pd  2            s(  2.52%)p20.84( 52.45%)d16.05( 40.39%)
                                                  f 1.84(  4.64%)
                                         0.0000 -0.0107  0.1257  0.0835  0.0477
                                         0.0000  0.0071 -0.0022  0.0000 -0.4912
[...]
   52. RY ( 2) C  1             0.00308     0.71472
   53. RY ( 3) C  1             0.00186     0.84374
   54. RY ( 4) C  1             0.00016     1.24589
   55. RY ( 5) C  1             0.00010     2.08235
   56. RY ( 6) C  1             0.00002     2.22246
   57. RY ( 7) C  1             0.00001     2.32166
   58. RY ( 8) C  1             0.00001     2.02071
   59. RY ( 9) C  1             0.00000     2.13336
  108. RY ( 1) H  6             0.00178     0.45504
  109. RY ( 2) H  6             0.00015     1.78121
  110. RY ( 3) H  6             0.00010     1.81471
  111. RY ( 4) H  6             0.00002     2.40021
  112. RY ( 1) H  7             0.00138     0.45985
  113. RY ( 2) H  7             0.00012     1.79465
  114. RY ( 3) H  7             0.00007     1.81423
  115. RY ( 4) H  7             0.00002     2.38821
  116. RY ( 1) H  8             0.00132     0.45782
  117. RY ( 2) H  8             0.00012     1.81700
  118. RY ( 3) H  8             0.00010     1.80232
  119. RY ( 4) H  8             0.00001     2.37420
          -------------------------------
                 Total Lewis    9.27835  ( 99.6555%)
           Valence non-Lewis    0.01536  (  0.1650%)
           Rydberg non-Lewis    0.01672  (  0.1796%)
          -------------------------------
               Total unit  1    9.31042  (100.0000%)
              Charge unit  1   -0.31042

 Molecular unit  2  (CH3Pd)
 ------ Lewis --------------------------------------
    2. CR ( 1)Pd  2             1.99999    -3.49324
    3. CR ( 2)Pd  2             1.99984    -2.16844
    4. CR ( 3)Pd  2             1.99988    -2.16554
    5. CR ( 4)Pd  2             1.99995    -2.13942
   11. CR ( 1) C  4             1.99993   -10.19058
   18. LP ( 1)Pd  2             1.98513    -0.25189  37(g),79(g),51(r),78(g)
                                                     90(v),76(g),68(g),69(g)
                                                     81(r),99(r),65(g),88(r)
                                                     106(r),107(r),89(r),86(r)
                                                     104(r),83(r),101(r),72(g)
                                                     63(g),105(r),87(r),93(v)
                                                     54(r),110(r),134(r),80(g)
                                                     114(r),102(r),84(r),145(r)
                                                     121(r),40(r),42(r),48(r)
                                                     128(r),148(r),118(r),49(r)
                                                     44(r),127(r),131(r),151(r)
                                                     155(r),123(r),147(r),43(r)
                                                     50(r),116(r),125(r),153(r)
                                                     152(r),129(r),149(r),124(r)
                                                     126(r),154(r),111(r),108(r)
                                                     39(r),150(r),130(r),58(r)
   19. LP ( 2)Pd  2             1.96552    -0.27000  44(r),49(r),50(r),43(r)
                                                     52(r),91(v),40(r),46(v)
                                                     82(r),100(r),103(r),85(r)
                                                     39(r)
   20. LP ( 3)Pd  2             1.95150    -0.26451  44(r),49(r),91(v),52(r)
                                                     50(r),43(r),82(r),100(r)
                                                     40(r),39(r),103(r),85(r)
                                                     38(r)
   21. LP ( 4)Pd  2             1.93944    -0.28901  48(r),42(r),45(v),38(r)
                                                     43(r),50(r),81(r),99(r)
                                                     53(r),92(v),39(r),47(v)
                                                     49(r),44(r),102(r),84(r)
                                                     83(r),101(r),55(r),88(r)
                                                     106(r),107(r),89(r)
   27. BD ( 1)Pd  2- C  4       1.98290    -0.33939  41(g),42(r),51(r),83(r)
                                                     99(r),38(r),101(r),48(r)
                                                     81(r),43(r),104(r),49(r)
                                                     50(r),44(r)
   31. BD ( 1) C  4- H 12       1.99298    -0.44800  42(r),41(g),37(v),53(r)
                                                     51(r),81(r),86(r),112(r)
   32. BD ( 1) C  4- H 13       1.99518    -0.44115  37(v),51(r),112(r),53(r)
                                                     88(r),49(r),106(r)
   33. BD ( 1) C  4- H 14       1.99527    -0.44034  37(v),41(g),38(r),51(r)
                                                     53(r),42(r),112(r)
 ------ non-Lewis ----------------------------------
   37. LV ( 1)Pd  2             0.58069     0.42518
   41. BD*( 1)Pd  2- C  4       0.68427     0.01154
   45. BD*( 1) C  4- H 12       0.00594     0.50457
   46. BD*( 1) C  4- H 13       0.00326     0.50822
   47. BD*( 1) C  4- H 14       0.00509     0.51893
   60. RY ( 1)Pd  2             0.00498     0.97116
   61. RY ( 2)Pd  2             0.00301     0.43396
   62. RY ( 3)Pd  2             0.00280     0.99882
   63. RY ( 4)Pd  2             0.00168     0.67812
   64. RY ( 5)Pd  2             0.00132     0.63452
   65. RY ( 6)Pd  2             0.00092     1.90700
   66. RY ( 7)Pd  2             0.00051     0.59476
   67. RY ( 8)Pd  2             0.00038     0.46708
   68. RY ( 9)Pd  2             0.00032     1.95921
   69. RY (10)Pd  2             0.00009     3.98400
   70. RY (11)Pd  2             0.00008     1.66678
   71. RY (12)Pd  2             0.00006     2.17396
   72. RY (13)Pd  2             0.00003     2.26073
   73. RY (14)Pd  2             0.00003     2.23672
   74. RY (15)Pd  2             0.00003     2.17622
   75. RY (16)Pd  2             0.00002     1.57322
   76. RY (17)Pd  2             0.00001     6.46953
   77. RY (18)Pd  2             0.00000     0.75576
   78. RY (19)Pd  2             0.00000    12.72606
   79. RY (20)Pd  2             0.00000    26.16579
   80. RY (21)Pd  2             0.00000     2.50033
   90. RY ( 1) C  4             0.00709     1.39055
   91. RY ( 2) C  4             0.00309     0.71516
   92. RY ( 3) C  4             0.00186     0.84546
   93. RY ( 4) C  4             0.00016     1.24521
   94. RY ( 5) C  4             0.00010     2.07962
   95. RY ( 6) C  4             0.00002     2.22010
   96. RY ( 7) C  4             0.00001     2.30407
   97. RY ( 8) C  4             0.00001     2.06416
   98. RY ( 9) C  4             0.00000     2.11515
  132. RY ( 1) H 12             0.00178     0.45504
  133. RY ( 2) H 12             0.00015     1.78119
  134. RY ( 3) H 12             0.00010     1.81469
  135. RY ( 4) H 12             0.00002     2.40019
  136. RY ( 1) H 13             0.00132     0.45778
  137. RY ( 2) H 13             0.00012     1.81710
  138. RY ( 3) H 13             0.00010     1.80219
  139. RY ( 4) H 13             0.00001     2.37420
  140. RY ( 1) H 14             0.00138     0.45987
  141. RY ( 2) H 14             0.00012     1.79462
  142. RY ( 3) H 14             0.00007     1.81433
  143. RY ( 4) H 14             0.00002     2.38821
          -------------------------------
                 Total Lewis   53.80750  ( 97.6179%)
           Valence non-Lewis    1.27925  (  2.3208%)
           Rydberg non-Lewis    0.03379  (  0.0613%)
          -------------------------------
               Total unit  2   55.12054  (100.0000%)
              Charge unit  2   -0.12054

 Molecular unit  3  (H3P)
 ------ Lewis --------------------------------------
    6. CR ( 1) P  3             2.00000   -67.03895
    7. CR ( 2) P  3             1.99995   -16.84198
    8. CR ( 3) P  3             1.99998    -4.78376
    9. CR ( 4) P  3             1.99998    -4.78534
   10. CR ( 5) P  3             1.99998    -4.78597
   22. LP ( 1) P  3             1.70740    -0.32506  37(r),79(r),76(r),78(r)
                                                     68(r),69(r),90(r),51(r)
                                                     88(g),65(r),89(g),106(r)
                                                     107(r),86(g),99(r),104(r)
                                                     81(g),72(r),101(r),87(g)
                                                     54(r),105(r),93(r),83(g)
                                                     110(r),134(r),80(r),48(r)
                                                     84(g),121(v),114(r),102(r)
                                                     128(v),142(r),124(v),125(v)
                                                     129(v),118(r),58(r),120(v)
                                                     64(r),138(r),108(r),63(r)
                                                     62(r),145(r),151(r),155(r)
                                                     132(r),147(r),45(r),47(r)
                                                     97(r),154(r),41(r),153(r)
                                                     116(r),149(r),150(r),148(r)
                                                     59(r),111(r),136(r),113(r)
                                                     117(r),143(r),60(r),115(r)
                                                     135(r),137(r),141(r),152(r)
                                                     98(r),94(r),55(r),96(r)
                                                     40(r),61(r),57(r)
   28. BD ( 1) P  3- H  9       1.98188    -0.46781  79(r),78(r),76(r),90(r)
                                                     37(r),68(r),65(r),69(r)
                                                     51(r),81(g),63(r),106(r)
                                                     107(r),99(r),72(r),104(r)
                                                     92(r),105(r),54(r),93(r)
                                                     134(r),110(r),80(r),64(r)
                                                     48(r),101(r)
   29. BD ( 1) P  3- H 10       1.98867    -0.47350  79(r),78(r),68(r),76(r)
                                                     44(g),65(r),51(r),69(r)
                                                     41(r),132(r),64(r),99(r)
                                                     61(r),37(r),106(r),101(r)
                                                     107(r),104(r),72(r),92(r)
                                                     90(r),47(r)
   30. BD ( 1) P  3- H 11       1.98855    -0.47334  79(r),68(r),78(r),76(r)
                                                     43(g),69(r),65(r),51(r)
                                                     132(r),61(r),41(r),106(r)
                                                     99(r),37(r),107(r),90(r)
                                                     101(r),104(r),45(r),72(r)
                                                     64(r),54(r)
 ------ non-Lewis ----------------------------------
   42. BD*( 1) P  3- H  9       0.03846     0.23628
   43. BD*( 1) P  3- H 10       0.02842     0.22615
   44. BD*( 1) P  3- H 11       0.02771     0.22533
   81. RY ( 1) P  3             0.00759     0.88047
   82. RY ( 2) P  3             0.00487     0.87277
   83. RY ( 3) P  3             0.00469     0.87503
   84. RY ( 4) P  3             0.00051     0.69436
   85. RY ( 5) P  3             0.00035     0.59064
   86. RY ( 6) P  3             0.00027     0.87794
   87. RY ( 7) P  3             0.00008     0.67138
   88. RY ( 8) P  3             0.00004     1.06898
   89. RY ( 9) P  3             0.00002     1.01412
  120. RY ( 1) H  9             0.00144     0.39459
  121. RY ( 2) H  9             0.00014     1.70382
  122. RY ( 3) H  9             0.00012     1.53421
  123. RY ( 4) H  9             0.00001     1.91355
  124. RY ( 1) H 10             0.00145     0.42120
  125. RY ( 2) H 10             0.00013     1.65607
  126. RY ( 3) H 10             0.00009     1.62338
  127. RY ( 4) H 10             0.00002     1.88056
  128. RY ( 1) H 11             0.00150     0.41835
  129. RY ( 2) H 11             0.00013     1.66044
  130. RY ( 3) H 11             0.00009     1.62000
  131. RY ( 4) H 11             0.00002     1.88541
          -------------------------------
                 Total Lewis   17.66638  ( 99.3357%)
           Valence non-Lewis    0.09460  (  0.5319%)
           Rydberg non-Lewis    0.02355  (  0.1324%)
          -------------------------------
               Total unit  3   17.78452  (100.0000%)
              Charge unit  3    0.21548

 Molecular unit  4  (H3P)
 ------ Lewis --------------------------------------
   12. CR ( 1) P  5             2.00000   -67.03900
   13. CR ( 2) P  5             1.99995   -16.84192
   14. CR ( 3) P  5             1.99998    -4.78376
   15. CR ( 4) P  5             1.99998    -4.78534
   16. CR ( 5) P  5             1.99998    -4.78597
   23. LP ( 1) P  5             1.70739    -0.32506  41(r),37(r),79(r),76(r)
                                                     78(r),68(r),69(r),51(r)
                                                     90(r),106(g),65(r),107(g)
                                                     88(r),89(r),104(g),81(r)
                                                     86(r),99(g),72(r),83(r)
                                                     105(g),93(r),87(r),54(r)
                                                     101(g),134(r),110(r),42(r)
                                                     80(r),102(g),145(v),142(r)
                                                     84(r),148(v),114(r),152(v)
                                                     153(v),149(v),138(r),63(r)
                                                     144(v),64(r),118(r),132(r)
                                                     121(r),97(r),60(r),62(r)
                                                     131(r),127(r),108(r),58(r)
                                                     123(r),38(r),39(r),126(r)
                                                     98(r),125(r),136(r),129(r)
                                                     130(r),128(r),135(r),116(r)
                                                     141(r),137(r),115(r),96(r)
                                                     143(r),111(r),117(r),113(r)
                                                     124(r),55(r),59(r),94(r)
                                                     46(r),67(r),47(r)
   34. BD ( 1) P  5- H 15       1.98188    -0.46781  79(r),78(r),76(r),51(r)
                                                     68(r),37(r),65(r),69(r)
                                                     90(r),41(r),63(r),99(g)
                                                     88(r),89(r),81(r),72(r)
                                                     86(r),53(r),93(r),87(r)
                                                     54(r),110(r),134(r),80(r)
                                                     64(r),42(r),83(r)
   35. BD ( 1) P  5- H 16       1.98854    -0.47334  79(r),68(r),78(r),76(r)
                                                     50(g),69(r),65(r),90(r)
                                                     108(r),61(r),37(r),88(r)
                                                     81(r),89(r),51(r),83(r)
                                                     86(r),38(r),41(r),72(r)
                                                     64(r),93(r)
   36. BD ( 1) P  5- H 17       1.98867    -0.47351  79(r),78(r),68(r),76(r)
                                                     49(g),65(r),90(r),69(r)
                                                     108(r),64(r),81(r),37(r)
                                                     61(r),88(r),83(r),89(r)
                                                     86(r),72(r),41(r),53(r)
                                                     51(r),39(r)
 ------ non-Lewis ----------------------------------
   48. BD*( 1) P  5- H 15       0.03847     0.23628
   49. BD*( 1) P  5- H 16       0.02772     0.22533
   50. BD*( 1) P  5- H 17       0.02841     0.22614
   99. RY ( 1) P  5             0.00759     0.88045
  100. RY ( 2) P  5             0.00487     0.87278
  101. RY ( 3) P  5             0.00469     0.87498
  102. RY ( 4) P  5             0.00051     0.69445
  103. RY ( 5) P  5             0.00035     0.59056
  104. RY ( 6) P  5             0.00027     0.87777
  105. RY ( 7) P  5             0.00008     0.67139
  106. RY ( 8) P  5             0.00004     1.06901
  107. RY ( 9) P  5             0.00002     1.01412
  144. RY ( 1) H 15             0.00144     0.39459
  145. RY ( 2) H 15             0.00014     1.70395
  146. RY ( 3) H 15             0.00012     1.53407
  147. RY ( 4) H 15             0.00001     1.91354
  148. RY ( 1) H 16             0.00150     0.41835
  149. RY ( 2) H 16             0.00013     1.66040
  150. RY ( 3) H 16             0.00009     1.62009
  151. RY ( 4) H 16             0.00002     1.88534
  152. RY ( 1) H 17             0.00145     0.42120
  153. RY ( 2) H 17             0.00013     1.65608
  154. RY ( 3) H 17             0.00009     1.62327
  155. RY ( 4) H 17             0.00002     1.88068
          -------------------------------
                 Total Lewis   17.66637  ( 99.3357%)
           Valence non-Lewis    0.09460  (  0.5319%)
           Rydberg non-Lewis    0.02355  (  0.1324%)
          -------------------------------
               Total unit  4   17.78452  (100.0000%)
              Charge unit  4    0.21548

 $CHOOSE
   LONE 1 1 2 4 3 1 5 1 END
   BOND S 1 6 S 1 7 S 1 8 S 2 4 S 3 9 S 3 10 S 3 11 S 4 12 S 4 13 S 4 14 S 5 15
        S 5 16 S 5 17 END
 $END

 NBO analysis completed in 0.26 CPU seconds (0 wall seconds)
 Maximum scratch memory used by NBO was 687012 words (5.24 MB)
 Maximum scratch memory used by G16NBO was 45403 words (0.35 MB)

 Opening RunExU unformatted file "/home/javialra/scratch/Gau-4180394.EUF"
 Read unf file /home/javialra/scratch/Gau-4180394.EUF:
 Label Gaussian matrix elements                                         IVers= 2 NLab= 2 Version=ES64L-G16RevC.01
 Title NBO input                                                       
 NAtoms=    17 NBasis=   155 NBsUse=   155 ICharg=     0 Multip=     1 NE=    72 Len12L=8 Len4L=8 IOpCl= 0 ICGU=111
 GAUSSIAN SCALARS                    NI= 1 NR= 1 NTot=       1 LenBuf=    2 NRI=1 N=    1000
 NPA CHARGES                         NI= 0 NR= 1 NTot=      17 LenBuf= 4000 NRI=1 N=      17
 Recovered energy= -893.353580436     dipole=     -0.000070694506     -1.698834271229      0.000087111178
 Unable to Open any file for archive entry.
 1\1\GINC-DALE\SP\RPBE1PBE\def2SVP\C2H12P2Pd1\JAVIALRA\19-Sep-2024\0\\#
  pbe1pbe def2svp pop=NBO7\\NBO input\\0,1\C,0,0.685279,-1.607182,0.936
 006\Pd,0,-0.069593,-0.220833,2.28288\P,0,-0.565307,1.466787,3.780542\C
 ,0,1.901689,0.416662,2.400309\P,0,-2.130605,-1.205707,1.937849\H,0,0.0
 25792,-2.472058,0.746605\H,0,1.652535,-1.989459,1.293119\H,0,0.847844,
 -1.08504,-0.021121\H,0,-1.831595,1.716194,4.385951\H,0,0.207867,1.5206
 66,4.971041\H,0,-0.318112,2.798428,3.351023\H,0,2.034639,1.42668,2.825
 723\H,0,2.443757,-0.298287,3.040759\H,0,2.36008,0.406136,1.400801\H,0,
 -3.378616,-0.764966,2.467399\H,0,-2.260407,-2.570142,2.312458\H,0,-2.5
 57807,-1.35271,0.591052\\Version=ES64L-G16RevC.01\State=1-A\HF=-893.35
 35804\RMSD=9.850e-09\Dipole=-1.5022719,0.4128921,0.6773013\Quadrupole=
 -0.6445637,0.9456796,-0.3011159,1.5116807,1.0645553,1.8386542\PG=C01 [
 X(C2H12P2Pd1)]\\@
 The archive entry for this job was punched.


 HE WHO LAUGHS LAST PROBABLY DIDN'T GET THE JOKE.
 Job cpu time:       0 days  0 hours 23 minutes 27.8 seconds.
 Elapsed time:       0 days  0 hours  0 minutes 24.5 seconds.
 File lengths (MBytes):  RWF=     17 Int=      0 D2E=      0 Chk=      2 Scr=      1
 Normal termination of Gaussian 16 at Thu Sep 19 09:58:29 2024.
