 Entering Gaussian System, Link 0=/opt/gaussian/g16/C01/g16/g16
 Input=r0_NBO.com
 Output=r0_NBO.log
 Initial command:
 /opt/gaussian/g16/C01/g16/l1.exe "/home/javialra/scratch/Gau-3243980.inp" -scrdir="/home/javialra/scratch/"
 Entering Link 1 = /opt/gaussian/g16/C01/g16/l1.exe PID=   3243981.
  
 Copyright (c) 1988-2019, Gaussian, Inc.  All Rights Reserved.
  
 This is part of the Gaussian(R) 16 program.  It is based on
 the Gaussian(R) 09 system (copyright 2009, Gaussian, Inc.),
 the Gaussian(R) 03 system (copyright 2003, Gaussian, Inc.),
 the Gaussian(R) 98 system (copyright 1998, Gaussian, Inc.),
 the Gaussian(R) 94 system (copyright 1995, Gaussian, Inc.),
 the Gaussian 92(TM) system (copyright 1992, Gaussian, Inc.),
 the Gaussian 90(TM) system (copyright 1990, Gaussian, Inc.),
 the Gaussian 88(TM) system (copyright 1988, Gaussian, Inc.),
 the Gaussian 86(TM) system (copyright 1986, Carnegie Mellon
 University), and the Gaussian 82(TM) system (copyright 1983,
 Carnegie Mellon University). Gaussian is a federally registered
 trademark of Gaussian, Inc.
  
 This software contains proprietary and confidential information,
 including trade secrets, belonging to Gaussian, Inc.
  
 This software is provided under written license and may be
 used, copied, transmitted, or stored only in accord with that
 written license.
  
 The following legend is applicable only to US Government
 contracts under FAR:
  
                    RESTRICTED RIGHTS LEGEND
  
 Use, reproduction and disclosure by the US Government is
 subject to restrictions as set forth in subparagraphs (a)
 and (c) of the Commercial Computer Software - Restricted
 Rights clause in FAR 52.227-19.
  
 Gaussian, Inc.
 340 Quinnipiac St., Bldg. 40, Wallingford CT 06492
  
  
 ---------------------------------------------------------------
 Warning -- This program may not be used in any manner that
 competes with the business of Gaussian, Inc. or will provide
 assistance to any competitor of Gaussian, Inc.  The licensee
 of this program is prohibited from giving any competitor of
 Gaussian, Inc. access to this program.  By using this program,
 the user acknowledges that Gaussian, Inc. is engaged in the
 business of creating and licensing software in the field of
 computational chemistry and represents and warrants to the
 licensee that it is not a competitor of Gaussian, Inc. and that
 it will not use this program in any manner prohibited above.
 ---------------------------------------------------------------
  

 Cite this work as:
 Gaussian 16, Revision C.01,
 M. J. Frisch, G. W. Trucks, H. B. Schlegel, G. E. Scuseria, 
 M. A. Robb, J. R. Cheeseman, G. Scalmani, V. Barone, 
 G. A. Petersson, H. Nakatsuji, X. Li, M. Caricato, A. V. Marenich, 
 J. Bloino, B. G. Janesko, R. Gomperts, B. Mennucci, H. P. Hratchian, 
 J. V. Ortiz, A. F. Izmaylov, J. L. Sonnenberg, D. Williams-Young, 
 F. Ding, F. Lipparini, F. Egidi, J. Goings, B. Peng, A. Petrone, 
 T. Henderson, D. Ranasinghe, V. G. Zakrzewski, J. Gao, N. Rega, 
 G. Zheng, W. Liang, M. Hada, M. Ehara, K. Toyota, R. Fukuda, 
 J. Hasegawa, M. Ishida, T. Nakajima, Y. Honda, O. Kitao, H. Nakai, 
 T. Vreven, K. Throssell, J. A. Montgomery, Jr., J. E. Peralta, 
 F. Ogliaro, M. J. Bearpark, J. J. Heyd, E. N. Brothers, K. N. Kudin, 
 V. N. Staroverov, T. A. Keith, R. Kobayashi, J. Normand, 
 K. Raghavachari, A. P. Rendell, J. C. Burant, S. S. Iyengar, 
 J. Tomasi, M. Cossi, J. M. Millam, M. Klene, C. Adamo, R. Cammi, 
 J. W. Ochterski, R. L. Martin, K. Morokuma, O. Farkas, 
 J. B. Foresman, and D. J. Fox, Gaussian, Inc., Wallingford CT, 2019.
 
 ******************************************
 Gaussian 16:  ES64L-G16RevC.01  3-Jul-2019
                 5-Sep-2024 
 ******************************************
 %nprocshared=64
 Will use up to   64 processors via shared memory.
 %mem=64000MB
 --------------------------
 # pbe1pbe def2svp pop=NBO7
 --------------------------
 1/38=1,172=1/1;
 2/12=2,17=6,18=5,40=1/2;
 3/5=43,7=101,11=2,25=1,30=1,74=-13/1,2,3;
 4//1;
 5/5=2,38=5/2;
 6/7=2,8=2,9=2,10=2,28=1,40=1,113=1,114=1,124=3103/1,12;
 99/5=1,9=1/99;
 ---------
 NBO input
 ---------
 Symbolic Z-matrix:
 Charge =  0 Multiplicity = 1
 C                    -0.63222   0.03353   0.20426 
 C                     0.63219  -0.0335   -0.20428 
 H                    -1.27005  -0.85454   0.2486 
 H                    -1.08738   0.97955   0.51303 
 H                     1.08734  -0.97952  -0.51307 
 H                     1.27002   0.85457  -0.24864 
 
                          Input orientation:                          
 ---------------------------------------------------------------------
 Center     Atomic      Atomic             Coordinates (Angstroms)
 Number     Number       Type             X           Y           Z
 ---------------------------------------------------------------------
      1          6           0       -0.632224    0.033533    0.204257
      2          6           0        0.632193   -0.033502   -0.204275
      3          1           0       -1.270054   -0.854538    0.248598
      4          1           0       -1.087378    0.979554    0.513031
      5          1           0        1.087344   -0.979517   -0.513072
      6          1           0        1.270018    0.854571   -0.248640
 ---------------------------------------------------------------------
                    Distance matrix (angstroms):
                    1          2          3          4          5
     1  C    0.000000
     2  C    1.330467   0.000000
     3  H    1.094287   2.120787   0.000000
     4  H    1.094286   2.120786   1.862039   0.000000
     5  H    2.120789   1.094286   2.480542   3.101655   0.000000
     6  H    2.120788   1.094286   3.101655   2.480540   1.862035
                    6
     6  H    0.000000
 Stoichiometry    C2H4
 Framework group  CS[SG(C2),X(H4)]
 Deg. of freedom     7
 Full point group                 CS      NOp   2
 Largest Abelian subgroup         CS      NOp   2
 Largest concise Abelian subgroup CS      NOp   2
                         Standard orientation:                         
 ---------------------------------------------------------------------
 Center     Atomic      Atomic             Coordinates (Angstroms)
 Number     Number       Type             X           Y           Z
 ---------------------------------------------------------------------
      1          6           0        0.000003   -0.665234    0.000000
      2          6           0        0.000003    0.665233   -0.000000
      3          1           0       -0.000010   -1.240270   -0.931019
      4          1           0       -0.000010   -1.240270    0.931019
      5          1           0       -0.000008    1.240272   -0.931017
      6          1           0       -0.000008    1.240272    0.931017
 ---------------------------------------------------------------------
 Rotational constants (GHZ):         144.6290845          30.0425832          24.8754212
 Standard basis: def2SVP (5D, 7F)
 There are    32 symmetry adapted cartesian basis functions of A'  symmetry.
 There are    18 symmetry adapted cartesian basis functions of A"  symmetry.
 There are    30 symmetry adapted basis functions of A'  symmetry.
 There are    18 symmetry adapted basis functions of A"  symmetry.
    48 basis functions,    78 primitive gaussians,    50 cartesian basis functions
     8 alpha electrons        8 beta electrons
       nuclear repulsion energy        33.2492633451 Hartrees.
 NAtoms=    6 NActive=    6 NUniq=    4 SFac= 2.25D+00 NAtFMM=   60 NAOKFM=F Big=F
 Integral buffers will be    131072 words long.
 Raffenetti 2 integral format.
 Two-electron integral symmetry is turned on.
 One-electron integrals computed using PRISM.
   2 Symmetry operations used in ECPInt.
 ECPInt:  NShTT=     300 NPrTT=    1028 LenC2=     301 LenP2D=     971.
 LDataN:  DoStor=T MaxTD1= 4 Len=   56
 NBasis=    48 RedAO= T EigKep=  3.94D-03  NBF=    30    18
 NBsUse=    48 1.00D-06 EigRej= -1.00D+00 NBFU=    30    18
 ExpMin= 1.22D-01 ExpMax= 1.24D+03 ExpMxC= 1.86D+02 IAcc=3 IRadAn=         5 AccDes= 0.00D+00
 Harris functional with IExCor= 1009 and IRadAn=       5 diagonalized for initial guess.
 HarFok:  IExCor= 1009 AccDes= 0.00D+00 IRadAn=         5 IDoV= 1 UseB2=F ITyADJ=14
 ICtDFT=  3500011 ScaDFX=  1.000000  1.000000  1.000000  1.000000
 FoFCou: FMM=F IPFlag=           0 FMFlag=      100000 FMFlg1=           0
         NFxFlg=           0 DoJE=T BraDBF=F KetDBF=T FulRan=T
         wScrn=  0.000000 ICntrl=       500 IOpCl=  0 I1Cent=   200000004 NGrid=           0
         NMat0=    1 NMatS0=      1 NMatT0=    0 NMatD0=    1 NMtDS0=    0 NMtDT0=    0
 Petite list used in FoFCou.
 Initial guess orbital symmetries:
       Occupied  (A') (A') (A') (A') (A") (A') (A") (A')
       Virtual   (A') (A') (A") (A') (A") (A') (A') (A") (A') (A')
                 (A') (A') (A') (A") (A") (A') (A') (A") (A") (A")
                 (A') (A") (A') (A") (A') (A') (A") (A') (A') (A")
                 (A') (A") (A') (A") (A') (A') (A") (A') (A') (A")
 The electronic state of the initial guess is 1-A'.
 Keep R1 ints in memory in symmetry-blocked form, NReq=56552206.
 Requested convergence on RMS density matrix=1.00D-08 within 128 cycles.
 Requested convergence on MAX density matrix=1.00D-06.
 Requested convergence on             energy=1.00D-06.
 No special actions if energy rises.
 Integral accuracy reduced to 1.0D-05 until final iterations.
 Initial convergence to 1.0D-05 achieved.  Increase integral accuracy.
 SCF Done:  E(RPBE1PBE) =  -78.4254812254     A.U. after    9 cycles
            NFock=  9  Conv=0.39D-08     -V/T= 2.0123

 **********************************************************************

            Population analysis using the SCF Density.

 **********************************************************************

 Orbital symmetries:
       Occupied  (A') (A') (A') (A') (A") (A') (A") (A')
       Virtual   (A') (A') (A") (A') (A") (A') (A') (A") (A') (A')
                 (A') (A') (A') (A') (A") (A") (A') (A") (A") (A")
                 (A') (A") (A") (A') (A') (A') (A") (A') (A') (A")
                 (A') (A") (A') (A") (A') (A') (A") (A') (A') (A")
 The electronic state is 1-A'.
 Alpha  occ. eigenvalues --  -10.23621 -10.23541  -0.77373  -0.58748  -0.47963
 Alpha  occ. eigenvalues --   -0.43186  -0.36291  -0.28672
 Alpha virt. eigenvalues --    0.01379   0.09636   0.11484   0.12867   0.20056
 Alpha virt. eigenvalues --    0.33546   0.40890   0.44654   0.45774   0.50868
 Alpha virt. eigenvalues --    0.56462   0.59798   0.66429   0.68753   0.69612
 Alpha virt. eigenvalues --    0.70796   0.83650   1.06123   1.18092   1.24354
 Alpha virt. eigenvalues --    1.27703   1.58585   1.63309   1.64148   1.70956
 Alpha virt. eigenvalues --    1.75389   1.77271   1.82612   1.92481   2.07245
 Alpha virt. eigenvalues --    2.16944   2.24254   2.38600   2.38988   2.48827
 Alpha virt. eigenvalues --    2.69937   2.80138   2.83170   3.06999   3.33930
          Condensed to atoms (all electrons):
               1          2          3          4          5          6
     1  C    4.661756   0.709534   0.397610   0.397610  -0.024983  -0.024983
     2  C    0.709534   4.661757  -0.024983  -0.024983   0.397610   0.397610
     3  H    0.397610  -0.024983   0.622648  -0.045512  -0.016229   0.008193
     4  H    0.397610  -0.024983  -0.045512   0.622648   0.008193  -0.016229
     5  H   -0.024983   0.397610  -0.016229   0.008193   0.622649  -0.045512
     6  H   -0.024983   0.397610   0.008193  -0.016229  -0.045512   0.622649
 Mulliken charges:
               1
     1  C   -0.116545
     2  C   -0.116546
     3  H    0.058273
     4  H    0.058273
     5  H    0.058272
     6  H    0.058272
 Sum of Mulliken charges =  -0.00000
 Mulliken charges with hydrogens summed into heavy atoms:
               1
     1  C    0.000001
     2  C   -0.000001
 Electronic spatial extent (au):  <R**2>=             82.7613
 Charge=             -0.0000 electrons
 Dipole moment (field-independent basis, Debye):
    X=             -0.0000    Y=              0.0000    Z=              0.0000  Tot=              0.0000
 Quadrupole moment (field-independent basis, Debye-Ang):
   XX=            -15.2228   YY=            -12.1658   ZZ=            -12.2131
   XY=              0.0000   XZ=             -0.0000   YZ=              0.0000
 Traceless Quadrupole moment (field-independent basis, Debye-Ang):
   XX=             -2.0222   YY=              1.0348   ZZ=              0.9875
   XY=              0.0000   XZ=             -0.0000   YZ=              0.0000
 Octapole moment (field-independent basis, Debye-Ang**2):
  XXX=             -0.0001  YYY=              0.0000  ZZZ=              0.0000  XYY=             -0.0001
  XXY=              0.0000  XXZ=              0.0000  XZZ=             -0.0000  YZZ=             -0.0000
  YYZ=              0.0000  XYZ=             -0.0000
 Hexadecapole moment (field-independent basis, Debye-Ang**3):
 XXXX=            -16.5712 YYYY=            -67.7215 ZZZZ=            -26.6252 XXXY=             -0.0000
 XXXZ=              0.0000 YYYX=             -0.0000 YYYZ=              0.0000 ZZZX=              0.0000
 ZZZY=             -0.0000 XXYY=            -14.8971 XXZZ=             -7.8506 YYZZ=            -13.2418
 XXYZ=              0.0000 YYXZ=             -0.0000 ZZXY=              0.0000
 N-N= 3.324926334512D+01 E-N=-2.474312954173D+02  KE= 7.746958343089D+01
 Symmetry A'   KE= 7.356594980869D+01
 Symmetry A"   KE= 3.903633622201D+00
 Running external command "gaunbo7 R"
         input file       "/home/javialra/scratch/Gau-3243981.EIn"
         output file      "/home/javialra/scratch/Gau-3243981.EOu"
         message file     "/home/javialra/scratch/Gau-3243981.EMs"
         fchk file        "/home/javialra/scratch/Gau-3243981.EFC"
         mat. el file     "/home/javialra/scratch/Gau-3243981.EUF"

 Writing WrtUnf unformatted file "/home/javialra/scratch/Gau-3243981.EUF"
 Gaussian matrix elements                                         Version   2 NLab=11 Len12L=8 Len4L=8
 Write SHELL TO ATOM MAP                   from file      0 offset           0 length                  24 to matrix element file.
 Write SHELL TYPES                         from file      0 offset           0 length                  24 to matrix element file.
 Write NUMBER OF PRIMITIVES PER SHELL      from file      0 offset           0 length                  24 to matrix element file.
 Write PRIMITIVE EXPONENTS                 from file      0 offset           0 length                  44 to matrix element file.
 Write CONTRACTION COEFFICIENTS            from file      0 offset           0 length                  44 to matrix element file.
 Write P(S=P) CONTRACTION COEFFICIENTS     from file      0 offset           0 length                  44 to matrix element file.
 Write COORDINATES OF EACH SHELL           from file      0 offset           0 length                  72 to matrix element file.
 Write BONDS PER ATOM                      from file      0 offset           0 length                   6 to matrix element file.
 Write BONDED ATOMS                        from file      0 offset           0 length                  10 to matrix element file.
 Write BOND TYPES                          from file      0 offset           0 length                  10 to matrix element file.
 Write ONIOM CHARGE/MULT                   from file      0 offset           0 length                  32 to matrix element file.
 Write ONIOM ATOM LAYERS                   from file      0 offset           0 length                   6 to matrix element file.
 Write ONIOM ATOM MODIFIERS                from file      0 offset           0 length                   6 to matrix element file.
 Write ONIOM ATOM TYPES                    from file      0 offset           0 length                   6 to matrix element file.
 Write ONIOM LINK ATOMS                    from file      0 offset           0 length                   6 to matrix element file.
 Write ONIOM LINK CHARGES                  from file      0 offset           0 length                   6 to matrix element file.
 Write ONIOM LINK DISTANCES                from file      0 offset           0 length                  24 to matrix element file.
 Write SYMINF INTS                         from file      0 offset           0 length                  26 to matrix element file.
 Write ROTTR TO SO                         from file      0 offset           0 length                  12 to matrix element file.
 Write GAUSSIAN SCALARS                    from file    501 offset           0 to matrix element file.
 Write OPTIMIZATION FLAGS                  from file      0 offset           0 length                   6 to matrix element file.
 Write INTEGER ISO                         from file      0 offset           0 length                   6 to matrix element file.
 Write INTEGER SPIN                        from file      0 offset           0 length                   6 to matrix element file.
 Write REAL ZEFFECTIVE                     from file      0 offset           0 length                   6 to matrix element file.
 Write REAL GFACTOR                        from file      0 offset           0 length                   6 to matrix element file.
 Write REAL ZNUCLEAR                       from file      0 offset           0 length                   6 to matrix element file.
 Write MULLIKEN CHARGES                    from file      0 offset           0 length                   6 to matrix element file.
 Write NUCLEAR GRADIENT                    from file  10584 offset           0 length                  18 to matrix element file.
 Array NUCLEAR FORCE CONSTANTS              on  file  10585 does not exist.
 Write ELECTRIC DIPOLE MOMENT              from file      0 offset           0 length                   3 to matrix element file.
 Write NON-ADIABATIC COUPLING              from file  10810 offset           0 length                  18 to matrix element file.
 Write FINITE EM FIELD                     from file  10521 offset           0 length                  35 to matrix element file.
 Write OVERLAP                             from file  10514 offset           0 length                1176 to matrix element file.
 Write CORE HAMILTONIAN ALPHA              from file  10515 offset           0 length                1176 to matrix element file.
 Write CORE HAMILTONIAN BETA               from file  10515 offset        1176 length                1176 to matrix element file.
 Write KINETIC ENERGY                      from file  10516 offset           0 length                1176 to matrix element file.
 Write ORTHOGONAL BASIS                    from file  10685 offset           0 length                2304 to matrix element file.
 Write DIPOLE INTEGRALS                    from file  10518 offset           0 length                3528 to matrix element file.
 Array DIP VEL INTEGRALS                    on  file  10572 does not exist.
 Array R X DEL INTEGRALS                    on  file  10572 does not exist.
 Write ALPHA ORBITAL ENERGIES              from file      0 offset           0 length                  48 to matrix element file.
 Write ALPHA MO COEFFICIENTS               from file  10524 offset           0 length                2304 to matrix element file.
 Write ALPHA DENSITY MATRIX                from file      0 offset           0 length                1176 to matrix element file.
 Write ALPHA FOCK MATRIX                   from file  10536 offset           0 length                1176 to matrix element file.
 Write ENERGY-WEIGHTED DENSITY             from file  10571 offset           0 length                1176 to matrix element file.
 Write ALPHA SCF DENSITY MATRIX            from file      0 offset           0 length                1176 to matrix element file.
 No 2e integrals to process.
 Perform NBO analysis...executing G16NBO...

 *********************************** NBO 7.0 ***********************************
             N A T U R A L   A T O M I C   O R B I T A L   A N D
          N A T U R A L   B O N D   O R B I T A L   A N A L Y S I S
 *************************** Thijs Stuyver (I102501) ***************************
  (c) Copyright 1996-2021 Board of Regents of the University of Wisconsin System
      on behalf of the Theoretical Chemistry Institute.  All rights reserved.

          Cite this program [NBO 7.0.10 (8-Feb-2021)] as:

          NBO 7.0.  E. D. Glendening, J. K. Badenhoop, A. E. Reed,
          J. E. Carpenter, J. A. Bohmann, C. M. Morales, P. Karafiloglou,
          C. R. Landis, and F. Weinhold, Theoretical Chemistry Institute,
          University of Wisconsin, Madison, WI (2018)

 Filename set to /home/javialra/scratch/Gau-3243981

 Job title: NBO input


 NATURAL POPULATIONS:  Natural atomic orbital occupancies

  NAO Atom No lang   Type(AO)    Occupancy      Energy
 -------------------------------------------------------
   1    C  1  s      Cor( 1s)     1.99995     -10.23480
   2    C  1  s      Val( 2s)     1.07012      -0.14091
   3    C  1  s      Ryd( 3s)     0.00139       0.54679
   4    C  1  px     Val( 2p)     0.99746      -0.11237
   5    C  1  px     Ryd( 3p)     0.00133       0.53740
   6    C  1  py     Val( 2p)     1.13738      -0.01766
   7    C  1  py     Ryd( 3p)     0.00279       0.52339
   8    C  1  pz     Val( 2p)     1.19618      -0.03588
   9    C  1  pz     Ryd( 3p)     0.00301       0.85438
  10    C  1  dxy    Ryd( 3d)     0.00084       1.97156
  11    C  1  dxz    Ryd( 3d)     0.00000       1.87156
  12    C  1  dyz    Ryd( 3d)     0.00093       2.52947
  13    C  1  dx2y2  Ryd( 3d)     0.00076       2.29839
  14    C  1  dz2    Ryd( 3d)     0.00075       2.32780

  15    C  2  s      Cor( 1s)     1.99995     -10.23480
  16    C  2  s      Val( 2s)     1.07012      -0.14091
  17    C  2  s      Ryd( 3s)     0.00139       0.54679
  18    C  2  px     Val( 2p)     0.99745      -0.11237
  19    C  2  px     Ryd( 3p)     0.00133       0.53740
  20    C  2  py     Val( 2p)     1.13738      -0.01766
  21    C  2  py     Ryd( 3p)     0.00279       0.52339
  22    C  2  pz     Val( 2p)     1.19618      -0.03588
  23    C  2  pz     Ryd( 3p)     0.00301       0.85438
  24    C  2  dxy    Ryd( 3d)     0.00084       1.97156
  25    C  2  dxz    Ryd( 3d)     0.00000       1.87156
  26    C  2  dyz    Ryd( 3d)     0.00093       2.52947
  27    C  2  dx2y2  Ryd( 3d)     0.00076       2.29839
  28    C  2  dz2    Ryd( 3d)     0.00075       2.32779

  29    H  3  s      Val( 1s)     0.79079       0.09236
  30    H  3  s      Ryd( 2s)     0.00152       0.33910
  31    H  3  px     Ryd( 2p)     0.00019       1.64597
  32    H  3  py     Ryd( 2p)     0.00029       1.99357
  33    H  3  pz     Ryd( 2p)     0.00076       2.26272

  34    H  4  s      Val( 1s)     0.79079       0.09236
  35    H  4  s      Ryd( 2s)     0.00152       0.33910
  36    H  4  px     Ryd( 2p)     0.00019       1.64597
  37    H  4  py     Ryd( 2p)     0.00029       1.99357
  38    H  4  pz     Ryd( 2p)     0.00076       2.26272

  39    H  5  s      Val( 1s)     0.79079       0.09236
  40    H  5  s      Ryd( 2s)     0.00152       0.33910
  41    H  5  px     Ryd( 2p)     0.00019       1.64597
  42    H  5  py     Ryd( 2p)     0.00029       1.99357
  43    H  5  pz     Ryd( 2p)     0.00076       2.26272

  44    H  6  s      Val( 1s)     0.79079       0.09236
  45    H  6  s      Ryd( 2s)     0.00152       0.33910
  46    H  6  px     Ryd( 2p)     0.00019       1.64597
  47    H  6  py     Ryd( 2p)     0.00029       1.99357
  48    H  6  pz     Ryd( 2p)     0.00076       2.26272


 Summary of Natural Population Analysis:

                                     Natural Population
             Natural    ---------------------------------------------
  Atom No    Charge        Core      Valence    Rydberg      Total
 --------------------------------------------------------------------
    C  1   -0.41289      1.99995     4.40114    0.01181     6.41289
    C  2   -0.41289      1.99995     4.40114    0.01181     6.41289
    H  3    0.20645      0.00000     0.79079    0.00277     0.79355
    H  4    0.20645      0.00000     0.79079    0.00277     0.79355
    H  5    0.20645      0.00000     0.79079    0.00277     0.79355
    H  6    0.20645      0.00000     0.79079    0.00277     0.79355
 ====================================================================
 * Total *  0.00000      3.99990    11.96542    0.03468    16.00000

                                 Natural Population
 ---------------------------------------------------------
   Core                       3.99990 ( 99.9975% of    4)
   Valence                   11.96542 ( 99.7118% of   12)
   Natural Minimal Basis     15.96532 ( 99.7832% of   16)
   Natural Rydberg Basis      0.03468 (  0.2168% of   16)
 ---------------------------------------------------------

    Atom No         Natural Electron Configuration
 ----------------------------------------------------------------------------
      C  1      [core]2s( 1.07)2p( 3.33)3p( 0.01)
      C  2      [core]2s( 1.07)2p( 3.33)3p( 0.01)
      H  3            1s( 0.79)
      H  4            1s( 0.79)
      H  5            1s( 0.79)
      H  6            1s( 0.79)


 NATURAL BOND ORBITAL ANALYSIS:

                            Occupancies       Lewis Structure    Low   High
         Max    Occ     -------------------  -----------------   occ   occ
  Cycle  Ctr   Thresh    Lewis   non-Lewis     CR  BD  nC  LP    (L)   (NL)
 ============================================================================
    1     2     1.90    15.93525   0.06475      2   6   0   0     0      0
 ----------------------------------------------------------------------------

 Structure accepted: No low occupancy Lewis orbitals

 -------------------------------------------------------
   Core                      3.99990 ( 99.997% of   4)
   Valence Lewis            11.93535 ( 99.461% of  12)
  ==================      =============================
   Total Lewis              15.93525 ( 99.595% of  16)
  -----------------------------------------------------
   Valence non-Lewis         0.04841 (  0.303% of  16)
   Rydberg non-Lewis         0.01634 (  0.102% of  16)
  ==================      =============================
   Total non-Lewis           0.06475 (  0.405% of  16)
 -------------------------------------------------------


     (Occupancy)   Bond orbital / Coefficients / Hybrids
 ------------------ Lewis ------------------------------------------------------
   1. (1.99995) CR ( 1) C  1            s(100.00%)
                                         1.0000  0.0000  0.0000  0.0000  0.0000
                                         0.0000  0.0000  0.0000  0.0000  0.0000
                                         0.0000  0.0000  0.0000  0.0000
   2. (1.99995) CR ( 1) C  2            s(100.00%)
                                         1.0000  0.0000  0.0000  0.0000  0.0000
                                         0.0000  0.0000  0.0000  0.0000  0.0000
                                         0.0000  0.0000  0.0000  0.0000
   3. (1.99925) BD ( 1) C  1- C  2
               ( 50.00%)   0.7071* C  1 s(  0.00%)p 1.00( 99.92%)d 0.00(  0.08%)
                                         0.0000  0.0000  0.0000  0.9989 -0.0364
                                         0.0000  0.0000  0.0000  0.0000  0.0290
                                         0.0000  0.0000  0.0000  0.0000
               ( 50.00%)   0.7071* C  2 s(  0.00%)p 1.00( 99.92%)d 0.00(  0.08%)
                                         0.0000  0.0000  0.0000  0.9989 -0.0364
                                         0.0000  0.0000  0.0000  0.0000 -0.0290
                                         0.0000  0.0000  0.0000  0.0000
   4. (1.99550) BD ( 2) C  1- C  2
               ( 50.00%)   0.7071* C  1 s( 40.99%)p 1.44( 58.92%)d 0.00(  0.09%)
                                         0.0000  0.6396  0.0286 -0.0001  0.0000
                                         0.7667  0.0382  0.0000  0.0000  0.0000
                                         0.0000  0.0000 -0.0265 -0.0130
               ( 50.00%)   0.7071* C  2 s( 40.99%)p 1.44( 58.92%)d 0.00(  0.09%)
                                         0.0000  0.6396  0.0286 -0.0001  0.0000
                                        -0.7667 -0.0382  0.0000  0.0000  0.0000
                                         0.0000  0.0000 -0.0265 -0.0130
   5. (1.98515) BD ( 1) C  1- H  3
               ( 60.47%)   0.7776* C  1 s( 29.53%)p 2.38( 70.42%)d 0.00(  0.05%)
                                         0.0000  0.5432 -0.0133  0.0000  0.0000
                                        -0.4520 -0.0135 -0.7069  0.0075  0.0000
                                         0.0000  0.0160 -0.0055  0.0151
               ( 39.53%)   0.6288* H  3 s( 99.88%)p 0.00(  0.12%)
                                         0.9994 -0.0026  0.0000  0.0174  0.0296
   6. (1.98515) BD ( 1) C  1- H  4
               ( 60.47%)   0.7776* C  1 s( 29.53%)p 2.38( 70.42%)d 0.00(  0.05%)
                                         0.0000  0.5432 -0.0133  0.0000  0.0000
                                        -0.4520 -0.0135  0.7069 -0.0075  0.0000
                                         0.0000 -0.0160 -0.0055  0.0151
               ( 39.53%)   0.6288* H  4 s( 99.88%)p 0.00(  0.12%)
                                         0.9994 -0.0026  0.0000  0.0174 -0.0296
   7. (1.98515) BD ( 1) C  2- H  5
               ( 60.47%)   0.7776* C  2 s( 29.53%)p 2.38( 70.42%)d 0.00(  0.05%)
                                         0.0000  0.5432 -0.0133  0.0000  0.0000
                                         0.4520  0.0135 -0.7069  0.0075  0.0000
                                         0.0000 -0.0160 -0.0055  0.0151
               ( 39.53%)   0.6288* H  5 s( 99.88%)p 0.00(  0.12%)
                                         0.9994 -0.0026  0.0000 -0.0174  0.0296
   8. (1.98515) BD ( 1) C  2- H  6
               ( 60.47%)   0.7776* C  2 s( 29.53%)p 2.38( 70.42%)d 0.00(  0.05%)
                                         0.0000  0.5432 -0.0133  0.0000  0.0000
                                         0.4520  0.0135  0.7069 -0.0075  0.0000
                                         0.0000  0.0160 -0.0055  0.0151
               ( 39.53%)   0.6288* H  6 s( 99.88%)p 0.00(  0.12%)
                                         0.9994 -0.0026  0.0000 -0.0174 -0.0296
 ---------------- non-Lewis ----------------------------------------------------
   9. (0.00000) BD*( 1) C  1- C  2
               ( 50.00%)   0.7071* C  1 s(  0.00%)p 1.00( 99.92%)d 0.00(  0.08%)
               ( 50.00%)  -0.7071* C  2 s(  0.00%)p 1.00( 99.92%)d 0.00(  0.08%)
  10. (0.00271) BD*( 2) C  1- C  2
               ( 50.00%)   0.7071* C  1 s( 40.99%)p 1.44( 58.92%)d 0.00(  0.09%)
                                         0.0000  0.6396  0.0286 -0.0001  0.0000
                                         0.7667  0.0382  0.0000  0.0000  0.0000
                                         0.0000  0.0000 -0.0265 -0.0130
               ( 50.00%)  -0.7071* C  2 s( 40.99%)p 1.44( 58.92%)d 0.00(  0.09%)
                                         0.0000  0.6396  0.0286 -0.0001  0.0000
                                        -0.7667 -0.0382  0.0000  0.0000  0.0000
                                         0.0000  0.0000 -0.0265 -0.0130
  11. (0.01142) BD*( 1) C  1- H  3
               ( 39.53%)   0.6288* C  1 s( 29.53%)p 2.38( 70.42%)d 0.00(  0.05%)
                                         0.0000 -0.5432  0.0133  0.0000  0.0000
                                         0.4520  0.0135  0.7069 -0.0075  0.0000
                                         0.0000 -0.0160  0.0055 -0.0151
               ( 60.47%)  -0.7776* H  3 s( 99.88%)p 0.00(  0.12%)
                                        -0.9994  0.0026  0.0000 -0.0174 -0.0296
  12. (0.01142) BD*( 1) C  1- H  4
               ( 39.53%)   0.6288* C  1 s( 29.53%)p 2.38( 70.42%)d 0.00(  0.05%)
                                         0.0000 -0.5432  0.0133  0.0000  0.0000
                                         0.4520  0.0135 -0.7069  0.0075  0.0000
                                         0.0000  0.0160  0.0055 -0.0151
               ( 60.47%)  -0.7776* H  4 s( 99.88%)p 0.00(  0.12%)
                                        -0.9994  0.0026  0.0000 -0.0174  0.0296
  13. (0.01142) BD*( 1) C  2- H  5
               ( 39.53%)   0.6288* C  2 s( 29.53%)p 2.38( 70.42%)d 0.00(  0.05%)
                                         0.0000 -0.5432  0.0133  0.0000  0.0000
                                        -0.4520 -0.0135  0.7069 -0.0075  0.0000
                                         0.0000  0.0160  0.0055 -0.0151
               ( 60.47%)  -0.7776* H  5 s( 99.88%)p 0.00(  0.12%)
                                        -0.9994  0.0026  0.0000  0.0174 -0.0296
  14. (0.01142) BD*( 1) C  2- H  6
               ( 39.53%)   0.6288* C  2 s( 29.53%)p 2.38( 70.42%)d 0.00(  0.05%)
                                         0.0000 -0.5432  0.0133  0.0000  0.0000
                                        -0.4520 -0.0135 -0.7069  0.0075  0.0000
                                         0.0000 -0.0160  0.0055 -0.0151
               ( 60.47%)  -0.7776* H  6 s( 99.88%)p 0.00(  0.12%)
                                        -0.9994  0.0026  0.0000  0.0174  0.0296
  15. (0.00337) RY ( 1) C  1            s(  0.00%)p 1.00( 88.35%)d 0.13( 11.65%)
                                         0.0000  0.0000  0.0000  0.0000  0.0000
                                         0.0000  0.0000  0.0177  0.9398  0.0000
                                         0.0000  0.3413  0.0000  0.0000
  16. (0.00111) RY ( 2) C  1            s( 11.15%)p 7.95( 88.62%)d 0.02(  0.23%)
                                         0.0000 -0.0093  0.3338  0.0000  0.0000
                                        -0.0507  0.9400  0.0000  0.0000  0.0000
                                         0.0000  0.0000  0.0378 -0.0294
  17. (0.00002) RY ( 3) C  1            s( 54.37%)p 0.10(  5.52%)d 0.74( 40.12%)
  18. (0.00000) RY ( 4) C  1            s(  0.00%)p 1.00(  0.67%)d99.99( 99.33%)
  19. (0.00000) RY ( 5) C  1            s(  0.00%)p 1.00( 12.12%)d 7.25( 87.87%)
  20. (0.00000) RY ( 6) C  1            s(  0.39%)p 0.78(  0.31%)d99.99( 99.30%)
  21. (0.00000) RY ( 7) C  1            s( 34.04%)p 0.17(  5.74%)d 1.77( 60.22%)
  22. (0.00000) RY ( 8) C  1            s(  0.00%)p 1.00( 98.98%)d 0.01(  1.02%)
  23. (0.00000) RY ( 9) C  1            s(  0.00%)p 0.00(  0.01%)d 1.00( 99.99%)
  24. (0.00337) RY ( 1) C  2            s(  0.00%)p 1.00( 88.35%)d 0.13( 11.65%)
                                         0.0000  0.0000  0.0000  0.0000  0.0000
                                         0.0000  0.0000  0.0177  0.9398  0.0000
                                         0.0000 -0.3413  0.0000  0.0000
  25. (0.00111) RY ( 2) C  2            s( 11.15%)p 7.95( 88.62%)d 0.02(  0.23%)
                                         0.0000 -0.0093  0.3338  0.0000  0.0000
                                         0.0507 -0.9400  0.0000  0.0000  0.0000
                                         0.0000  0.0000  0.0378 -0.0294
  26. (0.00002) RY ( 3) C  2            s( 54.37%)p 0.10(  5.52%)d 0.74( 40.12%)
  27. (0.00000) RY ( 4) C  2            s(  0.00%)p 1.00(  2.10%)d46.65( 97.90%)
  28. (0.00000) RY ( 5) C  2            s( 13.35%)p 0.70(  9.36%)d 5.79( 77.29%)
  29. (0.00000) RY ( 6) C  2            s(  0.39%)p 0.78(  0.31%)d99.99( 99.30%)
  30. (0.00000) RY ( 7) C  2            s( 20.70%)p 0.39(  8.08%)d 3.44( 71.23%)
  31. (0.00000) RY ( 8) C  2            s(  0.00%)p 1.00( 97.76%)d 0.02(  2.24%)
  32. (0.00000) RY ( 9) C  2            s(  0.00%)p 1.00(  0.22%)d99.99( 99.78%)
  33. (0.00156) RY ( 1) H  3            s( 98.06%)p 0.02(  1.94%)
                                         0.0072  0.9902  0.0000 -0.0983 -0.0989
  34. (0.00019) RY ( 2) H  3            s(  0.00%)p 1.00(100.00%)
                                         0.0000  0.0000  1.0000  0.0000  0.0000
  35. (0.00006) RY ( 3) H  3            s(  0.05%)p99.99( 99.95%)
  36. (0.00003) RY ( 4) H  3            s(  2.01%)p48.64( 97.99%)
  37. (0.00156) RY ( 1) H  4            s( 98.06%)p 0.02(  1.94%)
                                         0.0072  0.9902  0.0000 -0.0983  0.0989
  38. (0.00019) RY ( 2) H  4            s(  0.00%)p 1.00(100.00%)
                                         0.0000  0.0000  1.0000  0.0000  0.0000
  39. (0.00006) RY ( 3) H  4            s(  0.05%)p99.99( 99.95%)
  40. (0.00003) RY ( 4) H  4            s(  2.01%)p48.64( 97.99%)
  41. (0.00156) RY ( 1) H  5            s( 98.06%)p 0.02(  1.94%)
                                         0.0072  0.9902  0.0000  0.0983 -0.0989
  42. (0.00019) RY ( 2) H  5            s(  0.00%)p 1.00(100.00%)
                                         0.0000  0.0000  1.0000  0.0000  0.0000
  43. (0.00006) RY ( 3) H  5            s(  0.05%)p99.99( 99.95%)
  44. (0.00003) RY ( 4) H  5            s(  2.01%)p48.64( 97.99%)
  45. (0.00156) RY ( 1) H  6            s( 98.06%)p 0.02(  1.94%)
                                         0.0072  0.9902  0.0000  0.0983  0.0989
  46. (0.00019) RY ( 2) H  6            s(  0.00%)p 1.00(100.00%)
                                         0.0000  0.0000  1.0000  0.0000  0.0000
  47. (0.00006) RY ( 3) H  6            s(  0.05%)p99.99( 99.95%)
  48. (0.00003) RY ( 4) H  6            s(  2.01%)p48.64( 97.99%)


 NHO DIRECTIONALITY AND BOND BENDING (deviation from line of nuclear centers at
                                      the position of maximum hybrid amplitude)

         [Thresholds for printing:  angular deviation  >  1.0 degree]
                                    p- or d-character  > 25.0%
                                    orbital occupancy  >  0.10e

                        Line of Centers        Hybrid 1             Hybrid 2
                        ---------------  -------------------  ------------------
           NBO            Theta   Phi    Theta   Phi    Dev   Theta   Phi    Dev
 ===============================================================================
   3. BD ( 1) C  1- C  2   90.0   90.0    90.0    1.1  88.9    90.0  358.9  88.9


 SECOND ORDER PERTURBATION THEORY ANALYSIS OF FOCK MATRIX IN NBO BASIS

     Threshold for printing:   0.50 kcal/mol
                                                          E(2) E(NL)-E(L) F(L,NL)
      Donor (L) NBO              Acceptor (NL) NBO      kcal/mol   a.u.    a.u.
 ===============================================================================

 within unit  1
    4. BD ( 2) C  1- C  2      11. BD*( 1) C  1- H  3      0.90    1.14   0.029
    4. BD ( 2) C  1- C  2      12. BD*( 1) C  1- H  4      0.90    1.14   0.029
    4. BD ( 2) C  1- C  2      13. BD*( 1) C  2- H  5      0.90    1.14   0.029
    4. BD ( 2) C  1- C  2      14. BD*( 1) C  2- H  6      0.90    1.14   0.029
    4. BD ( 2) C  1- C  2      33. RY ( 1) H  3            0.51    1.05   0.021
    4. BD ( 2) C  1- C  2      37. RY ( 1) H  4            0.51    1.05   0.021
    4. BD ( 2) C  1- C  2      41. RY ( 1) H  5            0.51    1.05   0.021
    4. BD ( 2) C  1- C  2      45. RY ( 1) H  6            0.51    1.05   0.021
    5. BD ( 1) C  1- H  3      10. BD*( 2) C  1- C  2      0.54    1.18   0.023
    5. BD ( 1) C  1- H  3      13. BD*( 1) C  2- H  5      0.57    0.99   0.021
    5. BD ( 1) C  1- H  3      14. BD*( 1) C  2- H  6      4.52    0.99   0.060
    5. BD ( 1) C  1- H  3      24. RY ( 1) C  2            1.09    1.59   0.037
    6. BD ( 1) C  1- H  4      10. BD*( 2) C  1- C  2      0.54    1.18   0.023
    6. BD ( 1) C  1- H  4      13. BD*( 1) C  2- H  5      4.52    0.99   0.060
    6. BD ( 1) C  1- H  4      14. BD*( 1) C  2- H  6      0.57    0.99   0.021
    6. BD ( 1) C  1- H  4      24. RY ( 1) C  2            1.09    1.59   0.037
    7. BD ( 1) C  2- H  5      10. BD*( 2) C  1- C  2      0.54    1.18   0.023
    7. BD ( 1) C  2- H  5      11. BD*( 1) C  1- H  3      0.57    0.99   0.021
    7. BD ( 1) C  2- H  5      12. BD*( 1) C  1- H  4      4.52    0.99   0.060
    7. BD ( 1) C  2- H  5      15. RY ( 1) C  1            1.09    1.59   0.037
    8. BD ( 1) C  2- H  6      10. BD*( 2) C  1- C  2      0.54    1.18   0.023
    8. BD ( 1) C  2- H  6      11. BD*( 1) C  1- H  3      4.52    0.99   0.060
    8. BD ( 1) C  2- H  6      12. BD*( 1) C  1- H  4      0.57    0.99   0.021
    8. BD ( 1) C  2- H  6      15. RY ( 1) C  1            1.09    1.59   0.037


 NATURAL BOND ORBITALS (Summary):

                                                     Principal Delocalizations
           NBO                 Occupancy    Energy   (geminal,vicinal,remote)
 ===============================================================================
 Molecular unit  1  (C2H4)
 ------ Lewis --------------------------------------
    1. CR ( 1) C  1             1.99995   -10.23480
    2. CR ( 1) C  2             1.99995   -10.23480
    3. BD ( 1) C  1- C  2       1.99925    -0.28599
    4. BD ( 2) C  1- C  2       1.99550    -0.64363  11(g),12(g),13(g),14(g)
                                                     33(v),37(v),41(v),45(v)
    5. BD ( 1) C  1- H  3       1.98515    -0.49097  14(v),24(v),13(v),10(g)
    6. BD ( 1) C  1- H  4       1.98515    -0.49097  13(v),24(v),14(v),10(g)
    7. BD ( 1) C  2- H  5       1.98515    -0.49097  12(v),15(v),11(v),10(g)
    8. BD ( 1) C  2- H  6       1.98515    -0.49097  11(v),15(v),12(v),10(g)
 ------ non-Lewis ----------------------------------
    9. BD*( 1) C  1- C  2       0.00000     0.05420
   10. BD*( 2) C  1- C  2       0.00271     0.69285
   11. BD*( 1) C  1- H  3       0.01142     0.49786
   12. BD*( 1) C  1- H  4       0.01142     0.49786
   13. BD*( 1) C  2- H  5       0.01142     0.49786
   14. BD*( 1) C  2- H  6       0.01142     0.49786
   15. RY ( 1) C  1             0.00337     1.09877
   16. RY ( 2) C  1             0.00111     0.49593
   17. RY ( 3) C  1             0.00002     1.12212
   18. RY ( 4) C  1             0.00000     1.95325
   19. RY ( 5) C  1             0.00000     2.27180
   20. RY ( 6) C  1             0.00000     2.35271
   21. RY ( 7) C  1             0.00000     1.70406
   22. RY ( 8) C  1             0.00000     0.56578
   23. RY ( 9) C  1             0.00000     1.87380
   24. RY ( 1) C  2             0.00337     1.09877
   25. RY ( 2) C  2             0.00111     0.49593
   26. RY ( 3) C  2             0.00002     1.12213
   27. RY ( 4) C  2             0.00000     1.92639
   28. RY ( 5) C  2             0.00000     2.05458
   29. RY ( 6) C  2             0.00000     2.35270
   30. RY ( 7) C  2             0.00000     1.93007
   31. RY ( 8) C  2             0.00000     0.58613
   32. RY ( 9) C  2             0.00000     1.87153
   33. RY ( 1) H  3             0.00156     0.40151
   34. RY ( 2) H  3             0.00019     1.64597
   35. RY ( 3) H  3             0.00006     1.88692
   36. RY ( 4) H  3             0.00003     2.29592
   37. RY ( 1) H  4             0.00156     0.40151
   38. RY ( 2) H  4             0.00019     1.64597
   39. RY ( 3) H  4             0.00006     1.88692
   40. RY ( 4) H  4             0.00003     2.29592
   41. RY ( 1) H  5             0.00156     0.40151
   42. RY ( 2) H  5             0.00019     1.64597
   43. RY ( 3) H  5             0.00006     1.88692
   44. RY ( 4) H  5             0.00003     2.29592
   45. RY ( 1) H  6             0.00156     0.40151
   46. RY ( 2) H  6             0.00019     1.64597
   47. RY ( 3) H  6             0.00006     1.88692
   48. RY ( 4) H  6             0.00003     2.29592
          -------------------------------
                 Total Lewis   15.93525  ( 99.5953%)
           Valence non-Lewis    0.04841  (  0.3026%)
           Rydberg non-Lewis    0.01634  (  0.1021%)
          -------------------------------
               Total unit  1   16.00000  (100.0000%)
              Charge unit  1    0.00000

 $CHOOSE
   BOND D 1 2 S 1 3 S 1 4 S 2 5 S 2 6 END
 $END

 NBO analysis completed in 0.04 CPU seconds (0 wall seconds)
 Maximum scratch memory used by NBO was 331955 words (2.53 MB)
 Maximum scratch memory used by G16NBO was 11886 words (0.09 MB)

 Opening RunExU unformatted file "/home/javialra/scratch/Gau-3243981.EUF"
 Read unf file /home/javialra/scratch/Gau-3243981.EUF:
 Label Gaussian matrix elements                                         IVers= 2 NLab= 2 Version=ES64L-G16RevC.01
 Title NBO input                                                       
 NAtoms=     6 NBasis=    48 NBsUse=    48 ICharg=     0 Multip=     1 NE=    16 Len12L=8 Len4L=8 IOpCl= 0 ICGU=111
 GAUSSIAN SCALARS                    NI= 1 NR= 1 NTot=       1 LenBuf=    2 NRI=1 N=    1000
 NPA CHARGES                         NI= 0 NR= 1 NTot=       6 LenBuf= 4000 NRI=1 N=       6
 Recovered energy= -78.4254812254     dipole=     -0.000013023670      0.000000791064      0.000000000000
 Unable to Open any file for archive entry.
 1\1\GINC-DALE\SP\RPBE1PBE\def2SVP\C2H4\JAVIALRA\05-Sep-2024\0\\# pbe1p
 be def2svp pop=NBO7\\NBO input\\0,1\C,0,-0.632224,0.033533,0.204257\C,
 0,0.632193,-0.033502,-0.204275\H,0,-1.270054,-0.854538,0.248598\H,0,-1
 .087378,0.979554,0.513031\H,0,1.087344,-0.979517,-0.513072\H,0,1.27001
 8,0.854571,-0.24864\\Version=ES64L-G16RevC.01\State=1-A'\HF=-78.425481
 2\RMSD=3.900e-09\Dipole=-0.0000031,0.0000021,-0.0000125\Quadrupole=0.5
 708038,0.673264,-1.2440677,0.1073988,-0.6320642,0.348167\PG=CS [SG(C2)
 ,X(H4)]\\@
 The archive entry for this job was punched.


 UNDER MOST GREENE GRASSE LY MOST GREATE SNAKES.
 -- PROVERBS AND REASONS OF THE YEAR 1585
           AS REPRINTED IN PAISLEY MAGAZINE 1828.
 Job cpu time:       0 days  0 hours 20 minutes 41.8 seconds.
 Elapsed time:       0 days  0 hours  0 minutes 23.1 seconds.
 File lengths (MBytes):  RWF=      6 Int=      0 D2E=      0 Chk=      1 Scr=      1
 Normal termination of Gaussian 16 at Thu Sep  5 14:18:34 2024.
