 Entering Gaussian System, Link 0=/opt/gaussian/g16/C01/g16/g16
 Input=r1_NBO.com
 Output=r1_NBO.log
 Initial command:
 /opt/gaussian/g16/C01/g16/l1.exe "/home/javialra/scratch/Gau-3249973.inp" -scrdir="/home/javialra/scratch/"
 Entering Link 1 = /opt/gaussian/g16/C01/g16/l1.exe PID=   3249974.
  
 Copyright (c) 1988-2019, Gaussian, Inc.  All Rights Reserved.
  
 This is part of the Gaussian(R) 16 program.  It is based on
 the Gaussian(R) 09 system (copyright 2009, Gaussian, Inc.),
 the Gaussian(R) 03 system (copyright 2003, Gaussian, Inc.),
 the Gaussian(R) 98 system (copyright 1998, Gaussian, Inc.),
 the Gaussian(R) 94 system (copyright 1995, Gaussian, Inc.),
 the Gaussian 92(TM) system (copyright 1992, Gaussian, Inc.),
 the Gaussian 90(TM) system (copyright 1990, Gaussian, Inc.),
 the Gaussian 88(TM) system (copyright 1988, Gaussian, Inc.),
 the Gaussian 86(TM) system (copyright 1986, Carnegie Mellon
 University), and the Gaussian 82(TM) system (copyright 1983,
 Carnegie Mellon University). Gaussian is a federally registered
 trademark of Gaussian, Inc.
  
 This software contains proprietary and confidential information,
 including trade secrets, belonging to Gaussian, Inc.
  
 This software is provided under written license and may be
 used, copied, transmitted, or stored only in accord with that
 written license.
  
 The following legend is applicable only to US Government
 contracts under FAR:
  
                    RESTRICTED RIGHTS LEGEND
  
 Use, reproduction and disclosure by the US Government is
 subject to restrictions as set forth in subparagraphs (a)
 and (c) of the Commercial Computer Software - Restricted
 Rights clause in FAR 52.227-19.
  
 Gaussian, Inc.
 340 Quinnipiac St., Bldg. 40, Wallingford CT 06492
  
  
 ---------------------------------------------------------------
 Warning -- This program may not be used in any manner that
 competes with the business of Gaussian, Inc. or will provide
 assistance to any competitor of Gaussian, Inc.  The licensee
 of this program is prohibited from giving any competitor of
 Gaussian, Inc. access to this program.  By using this program,
 the user acknowledges that Gaussian, Inc. is engaged in the
 business of creating and licensing software in the field of
 computational chemistry and represents and warrants to the
 licensee that it is not a competitor of Gaussian, Inc. and that
 it will not use this program in any manner prohibited above.
 ---------------------------------------------------------------
  

 Cite this work as:
 Gaussian 16, Revision C.01,
 M. J. Frisch, G. W. Trucks, H. B. Schlegel, G. E. Scuseria, 
 M. A. Robb, J. R. Cheeseman, G. Scalmani, V. Barone, 
 G. A. Petersson, H. Nakatsuji, X. Li, M. Caricato, A. V. Marenich, 
 J. Bloino, B. G. Janesko, R. Gomperts, B. Mennucci, H. P. Hratchian, 
 J. V. Ortiz, A. F. Izmaylov, J. L. Sonnenberg, D. Williams-Young, 
 F. Ding, F. Lipparini, F. Egidi, J. Goings, B. Peng, A. Petrone, 
 T. Henderson, D. Ranasinghe, V. G. Zakrzewski, J. Gao, N. Rega, 
 G. Zheng, W. Liang, M. Hada, M. Ehara, K. Toyota, R. Fukuda, 
 J. Hasegawa, M. Ishida, T. Nakajima, Y. Honda, O. Kitao, H. Nakai, 
 T. Vreven, K. Throssell, J. A. Montgomery, Jr., J. E. Peralta, 
 F. Ogliaro, M. J. Bearpark, J. J. Heyd, E. N. Brothers, K. N. Kudin, 
 V. N. Staroverov, T. A. Keith, R. Kobayashi, J. Normand, 
 K. Raghavachari, A. P. Rendell, J. C. Burant, S. S. Iyengar, 
 J. Tomasi, M. Cossi, J. M. Millam, M. Klene, C. Adamo, R. Cammi, 
 J. W. Ochterski, R. L. Martin, K. Morokuma, O. Farkas, 
 J. B. Foresman, and D. J. Fox, Gaussian, Inc., Wallingford CT, 2019.
 
 ******************************************
 Gaussian 16:  ES64L-G16RevC.01  3-Jul-2019
                 5-Sep-2024 
 ******************************************
 %nprocshared=64
 Will use up to   64 processors via shared memory.
 %mem=64000MB
 --------------------------
 # pbe1pbe def2svp pop=NBO7
 --------------------------
 1/38=1,172=1/1;
 2/12=2,17=6,18=5,40=1/2;
 3/5=43,7=101,11=2,25=1,30=1,74=-13/1,2,3;
 4//1;
 5/5=2,38=5/2;
 6/7=2,8=2,9=2,10=2,28=1,40=1,113=1,114=1,124=3103/1,12;
 99/5=1,9=1/99;
 ---------
 NBO input
 ---------
 Symbolic Z-matrix:
 Charge =  0 Multiplicity = 1
 C                     1.84246  -0.14546  -0.18713 
 C                     0.55303  -0.46041  -0.37122 
 C                    -0.55303   0.46046  -0.16082 
 C                    -1.84245   0.14548  -0.34491 
 H                     2.1409    0.85486   0.14227 
 H                     2.64024  -0.87189  -0.35809 
 H                     0.28809  -1.47213  -0.70186 
 H                    -0.28812   1.47219   0.16982 
 H                    -2.64027   0.87187  -0.17396 
 H                    -2.14085  -0.85487  -0.6743 
 
                          Input orientation:                          
 ---------------------------------------------------------------------
 Center     Atomic      Atomic             Coordinates (Angstroms)
 Number     Number       Type             X           Y           Z
 ---------------------------------------------------------------------
      1          6           0        1.842457   -0.145460   -0.187134
      2          6           0        0.553025   -0.460410   -0.371223
      3          6           0       -0.553031    0.460463   -0.160817
      4          6           0       -1.842454    0.145475   -0.344908
      5          1           0        2.140902    0.854861    0.142270
      6          1           0        2.640239   -0.871887   -0.358091
      7          1           0        0.288094   -1.472132   -0.701861
      8          1           0       -0.288115    1.472188    0.169821
      9          1           0       -2.640269    0.871866   -0.173956
     10          1           0       -2.140849   -0.854865   -0.674302
 ---------------------------------------------------------------------
                    Distance matrix (angstroms):
                    1          2          3          4          5
     1  C    0.000000
     2  C    1.340044   0.000000
     3  C    2.471072   1.454523   0.000000
     4  C    3.699744   2.471054   1.340044   0.000000
     5  H    1.094632   2.124845   2.739468   4.075254   0.000000
     6  H    1.092419   2.127428   3.465696   4.596709   1.865840
     7  H    2.107379   1.096855   2.176038   2.698759   3.091982
     8  H    2.698803   2.176047   1.096854   2.107388   2.506387
     9  H    4.596733   3.465689   2.127437   1.092418   4.791647
    10  H    4.075207   2.739418   2.124834   1.094632   4.682237
                    6          7          8          9         10
     6  H    0.000000
     7  H    2.451746   0.000000
     8  H    3.787959   3.124239   0.000000
     9  H    5.564022   3.787918   2.451774   0.000000
    10  H    4.791564   2.506300   3.091980   1.865842   0.000000
 Stoichiometry    C4H6
 Framework group  C1[X(C4H6)]
 Deg. of freedom    24
 Full point group                 C1      NOp   1
 Largest Abelian subgroup         C1      NOp   1
 Largest concise Abelian subgroup C1      NOp   1
                         Standard orientation:                         
 ---------------------------------------------------------------------
 Center     Atomic      Atomic             Coordinates (Angstroms)
 Number     Number       Type             X           Y           Z
 ---------------------------------------------------------------------
      1          6           0        1.846623    0.109630   -0.000003
      2          6           0        0.607308   -0.400091   -0.000011
      3          6           0       -0.607316    0.400113    0.000005
      4          6           0       -1.846617   -0.109644    0.000006
      5          1           0        2.015454    1.191164    0.000015
      6          1           0        2.730632   -0.532170    0.000027
      7          1           0        0.473182   -1.488714    0.000007
      8          1           0       -0.473205    1.488737   -0.000013
      9          1           0       -2.730654    0.532117   -0.000016
     10          1           0       -2.015396   -1.191186   -0.000001
 ---------------------------------------------------------------------
 Rotational constants (GHZ):          42.0230104           4.4190942           3.9986052
 Standard basis: def2SVP (5D, 7F)
 There are    90 symmetry adapted cartesian basis functions of A   symmetry.
 There are    86 symmetry adapted basis functions of A   symmetry.
    86 basis functions,   142 primitive gaussians,    90 cartesian basis functions
    15 alpha electrons       15 beta electrons
       nuclear repulsion energy       103.4902029969 Hartrees.
 NAtoms=   10 NActive=   10 NUniq=   10 SFac= 1.00D+00 NAtFMM=   60 NAOKFM=F Big=F
 Integral buffers will be    131072 words long.
 Raffenetti 2 integral format.
 Two-electron integral symmetry is turned on.
 One-electron integrals computed using PRISM.
   1 Symmetry operations used in ECPInt.
 ECPInt:  NShTT=     903 NPrTT=    3151 LenC2=     903 LenP2D=    2751.
 LDataN:  DoStor=T MaxTD1= 4 Len=   56
 NBasis=    86 RedAO= T EigKep=  1.83D-03  NBF=    86
 NBsUse=    86 1.00D-06 EigRej= -1.00D+00 NBFU=    86
 ExpMin= 1.22D-01 ExpMax= 1.24D+03 ExpMxC= 1.86D+02 IAcc=3 IRadAn=         5 AccDes= 0.00D+00
 Harris functional with IExCor= 1009 and IRadAn=       5 diagonalized for initial guess.
 HarFok:  IExCor= 1009 AccDes= 0.00D+00 IRadAn=         5 IDoV= 1 UseB2=F ITyADJ=14
 ICtDFT=  3500011 ScaDFX=  1.000000  1.000000  1.000000  1.000000
 FoFCou: FMM=F IPFlag=           0 FMFlag=      100000 FMFlg1=           0
         NFxFlg=           0 DoJE=T BraDBF=F KetDBF=T FulRan=T
         wScrn=  0.000000 ICntrl=       500 IOpCl=  0 I1Cent=   200000004 NGrid=           0
         NMat0=    1 NMatS0=      1 NMatT0=    0 NMatD0=    1 NMtDS0=    0 NMtDT0=    0
 Petite list used in FoFCou.
 Keep R1 ints in memory in canonical form, NReq=65516911.
 Requested convergence on RMS density matrix=1.00D-08 within 128 cycles.
 Requested convergence on MAX density matrix=1.00D-06.
 Requested convergence on             energy=1.00D-06.
 No special actions if energy rises.
 Integral accuracy reduced to 1.0D-05 until final iterations.
 Initial convergence to 1.0D-05 achieved.  Increase integral accuracy.
 SCF Done:  E(RPBE1PBE) =  -155.680472175     A.U. after   11 cycles
            NFock= 11  Conv=0.72D-08     -V/T= 2.0116

 **********************************************************************

            Population analysis using the SCF Density.

 **********************************************************************

 Orbital symmetries:
       Occupied  (A) (A) (A) (A) (A) (A) (A) (A) (A) (A) (A) (A)
                 (A) (A) (A)
       Virtual   (A) (A) (A) (A) (A) (A) (A) (A) (A) (A) (A) (A)
                 (A) (A) (A) (A) (A) (A) (A) (A) (A) (A) (A) (A)
                 (A) (A) (A) (A) (A) (A) (A) (A) (A) (A) (A) (A)
                 (A) (A) (A) (A) (A) (A) (A) (A) (A) (A) (A) (A)
                 (A) (A) (A) (A) (A) (A) (A) (A) (A) (A) (A) (A)
                 (A) (A) (A) (A) (A) (A) (A) (A) (A) (A) (A)
 The electronic state is 1-A.
 Alpha  occ. eigenvalues --  -10.24258 -10.24239 -10.23627 -10.23624  -0.82320
 Alpha  occ. eigenvalues --   -0.74858  -0.61700  -0.56301  -0.48019  -0.47621
 Alpha  occ. eigenvalues --   -0.40713  -0.39663  -0.35616  -0.34164  -0.24768
 Alpha virt. eigenvalues --   -0.02777   0.07888   0.08925   0.09896   0.10627
 Alpha virt. eigenvalues --    0.15193   0.17049   0.17538   0.29823   0.32254
 Alpha virt. eigenvalues --    0.37731   0.40110   0.40922   0.43440   0.45726
 Alpha virt. eigenvalues --    0.49101   0.53953   0.54408   0.55722   0.61298
 Alpha virt. eigenvalues --    0.63209   0.66012   0.66963   0.68150   0.68698
 Alpha virt. eigenvalues --    0.70958   0.71504   0.80302   0.82763   0.86235
 Alpha virt. eigenvalues --    1.01851   1.14813   1.17283   1.18583   1.21042
 Alpha virt. eigenvalues --    1.24454   1.27684   1.30146   1.60262   1.60484
 Alpha virt. eigenvalues --    1.63602   1.65884   1.66901   1.71177   1.76639
 Alpha virt. eigenvalues --    1.77461   1.79626   1.81405   1.89022   1.90905
 Alpha virt. eigenvalues --    2.02335   2.02640   2.06365   2.06827   2.13682
 Alpha virt. eigenvalues --    2.26475   2.30224   2.31021   2.35268   2.41760
 Alpha virt. eigenvalues --    2.53688   2.54432   2.57771   2.71569   2.76252
 Alpha virt. eigenvalues --    2.82553   2.83236   2.97174   3.03194   3.35917
 Alpha virt. eigenvalues --    3.37002
          Condensed to atoms (all electrons):
               1          2          3          4          5          6
     1  C    4.757296   0.644704  -0.051323   0.008670   0.390330   0.384108
     2  C    0.644704   4.770870   0.371802  -0.051321  -0.017393  -0.012884
     3  C   -0.051323   0.371802   4.770867   0.644704  -0.021571   0.009551
     4  C    0.008670  -0.051321   0.644704   4.757295   0.000749  -0.000567
     5  H    0.390330  -0.017393  -0.021571   0.000749   0.629636  -0.044703
     6  H    0.384108  -0.012884   0.009551  -0.000567  -0.044703   0.622991
     7  H   -0.043025   0.407627  -0.050235  -0.010933   0.008506  -0.013608
     8  H   -0.010932  -0.050234   0.407628  -0.043027   0.007099  -0.000057
     9  H   -0.000567   0.009551  -0.012886   0.384110   0.000004   0.000010
    10  H    0.000749  -0.021572  -0.017393   0.390329   0.000009   0.000004
               7          8          9         10
     1  C   -0.043025  -0.010932  -0.000567   0.000749
     2  C    0.407627  -0.050234   0.009551  -0.021572
     3  C   -0.050235   0.407628  -0.012886  -0.017393
     4  C   -0.010933  -0.043027   0.384110   0.390329
     5  H    0.008506   0.007099   0.000004   0.000009
     6  H   -0.013608  -0.000057   0.000010   0.000004
     7  H    0.658157   0.007801  -0.000057   0.007100
     8  H    0.007801   0.658154  -0.013607   0.008506
     9  H   -0.000057  -0.013607   0.622990  -0.044703
    10  H    0.007100   0.008506  -0.044703   0.629636
 Mulliken charges:
               1
     1  C   -0.080011
     2  C   -0.051150
     3  C   -0.051143
     4  C   -0.080010
     5  H    0.047334
     6  H    0.055154
     7  H    0.028668
     8  H    0.028668
     9  H    0.055154
    10  H    0.047335
 Sum of Mulliken charges =  -0.00000
 Mulliken charges with hydrogens summed into heavy atoms:
               1
     1  C    0.022478
     2  C   -0.022482
     3  C   -0.022475
     4  C    0.022479
 Electronic spatial extent (au):  <R**2>=            336.3057
 Charge=              0.0000 electrons
 Dipole moment (field-independent basis, Debye):
    X=             -0.0000    Y=              0.0000    Z=              0.0000  Tot=              0.0000
 Quadrupole moment (field-independent basis, Debye-Ang):
   XX=            -22.9595   YY=            -22.8349   ZZ=            -28.3800
   XY=              0.0342   XZ=              0.0002   YZ=             -0.0000
 Traceless Quadrupole moment (field-independent basis, Debye-Ang):
   XX=              1.7653   YY=              1.8899   ZZ=             -3.6552
   XY=              0.0342   XZ=              0.0002   YZ=             -0.0000
 Octapole moment (field-independent basis, Debye-Ang**2):
  XXX=             -0.0002  YYY=              0.0000  ZZZ=              0.0000  XYY=              0.0001
  XXY=              0.0001  XXZ=              0.0001  XZZ=             -0.0000  YZZ=              0.0000
  YYZ=              0.0000  XYZ=              0.0000
 Hexadecapole moment (field-independent basis, Debye-Ang**3):
 XXXX=           -339.4695 YYYY=            -64.3057 ZZZZ=            -31.1210 XXXY=             -6.3295
 XXXZ=              0.0013 YYYX=              1.7073 YYYZ=             -0.0001 ZZZX=              0.0002
 ZZZY=             -0.0000 XXYY=            -67.1480 XXZZ=            -73.5835 YYZZ=            -17.8323
 XXYZ=             -0.0001 YYXZ=              0.0002 ZZXY=              0.2368
 N-N= 1.034902029969D+02 E-N=-5.665795558608D+02  KE= 1.538930265097D+02
 Running external command "gaunbo7 R"
         input file       "/home/javialra/scratch/Gau-3249974.EIn"
         output file      "/home/javialra/scratch/Gau-3249974.EOu"
         message file     "/home/javialra/scratch/Gau-3249974.EMs"
         fchk file        "/home/javialra/scratch/Gau-3249974.EFC"
         mat. el file     "/home/javialra/scratch/Gau-3249974.EUF"

 Writing WrtUnf unformatted file "/home/javialra/scratch/Gau-3249974.EUF"
 Gaussian matrix elements                                         Version   2 NLab=11 Len12L=8 Len4L=8
 Write SHELL TO ATOM MAP                   from file      0 offset           0 length                  42 to matrix element file.
 Write SHELL TYPES                         from file      0 offset           0 length                  42 to matrix element file.
 Write NUMBER OF PRIMITIVES PER SHELL      from file      0 offset           0 length                  42 to matrix element file.
 Write PRIMITIVE EXPONENTS                 from file      0 offset           0 length                  78 to matrix element file.
 Write CONTRACTION COEFFICIENTS            from file      0 offset           0 length                  78 to matrix element file.
 Write P(S=P) CONTRACTION COEFFICIENTS     from file      0 offset           0 length                  78 to matrix element file.
 Write COORDINATES OF EACH SHELL           from file      0 offset           0 length                 126 to matrix element file.
 Write BONDS PER ATOM                      from file      0 offset           0 length                  10 to matrix element file.
 Write BONDED ATOMS                        from file      0 offset           0 length                  18 to matrix element file.
 Write BOND TYPES                          from file      0 offset           0 length                  18 to matrix element file.
 Write ONIOM CHARGE/MULT                   from file      0 offset           0 length                  32 to matrix element file.
 Write ONIOM ATOM LAYERS                   from file      0 offset           0 length                  10 to matrix element file.
 Write ONIOM ATOM MODIFIERS                from file      0 offset           0 length                  10 to matrix element file.
 Write ONIOM ATOM TYPES                    from file      0 offset           0 length                  10 to matrix element file.
 Write ONIOM LINK ATOMS                    from file      0 offset           0 length                  10 to matrix element file.
 Write ONIOM LINK CHARGES                  from file      0 offset           0 length                  10 to matrix element file.
 Write ONIOM LINK DISTANCES                from file      0 offset           0 length                  40 to matrix element file.
 Write SYMINF INTS                         from file      0 offset           0 length                  26 to matrix element file.
 Write ROTTR TO SO                         from file      0 offset           0 length                  12 to matrix element file.
 Write GAUSSIAN SCALARS                    from file    501 offset           0 to matrix element file.
 Write OPTIMIZATION FLAGS                  from file      0 offset           0 length                  10 to matrix element file.
 Write INTEGER ISO                         from file      0 offset           0 length                  10 to matrix element file.
 Write INTEGER SPIN                        from file      0 offset           0 length                  10 to matrix element file.
 Write REAL ZEFFECTIVE                     from file      0 offset           0 length                  10 to matrix element file.
 Write REAL GFACTOR                        from file      0 offset           0 length                  10 to matrix element file.
 Write REAL ZNUCLEAR                       from file      0 offset           0 length                  10 to matrix element file.
 Write MULLIKEN CHARGES                    from file      0 offset           0 length                  10 to matrix element file.
 Write NUCLEAR GRADIENT                    from file  10584 offset           0 length                  30 to matrix element file.
 Array NUCLEAR FORCE CONSTANTS              on  file  10585 does not exist.
 Write ELECTRIC DIPOLE MOMENT              from file      0 offset           0 length                   3 to matrix element file.
 Write NON-ADIABATIC COUPLING              from file  10810 offset           0 length                  30 to matrix element file.
 Write FINITE EM FIELD                     from file  10521 offset           0 length                  35 to matrix element file.
 Write OVERLAP                             from file  10514 offset           0 length                3741 to matrix element file.
 Write CORE HAMILTONIAN ALPHA              from file  10515 offset           0 length                3741 to matrix element file.
 Write CORE HAMILTONIAN BETA               from file  10515 offset        3741 length                3741 to matrix element file.
 Write KINETIC ENERGY                      from file  10516 offset           0 length                3741 to matrix element file.
 Write ORTHOGONAL BASIS                    from file  10685 offset           0 length                7396 to matrix element file.
 Write DIPOLE INTEGRALS                    from file  10518 offset           0 length               11223 to matrix element file.
 Array DIP VEL INTEGRALS                    on  file  10572 does not exist.
 Array R X DEL INTEGRALS                    on  file  10572 does not exist.
 Write ALPHA ORBITAL ENERGIES              from file      0 offset           0 length                  86 to matrix element file.
 Write ALPHA MO COEFFICIENTS               from file  10524 offset           0 length                7396 to matrix element file.
 Write ALPHA DENSITY MATRIX                from file      0 offset           0 length                3741 to matrix element file.
 Write ALPHA FOCK MATRIX                   from file  10536 offset           0 length                3741 to matrix element file.
 Write ENERGY-WEIGHTED DENSITY             from file  10571 offset           0 length                3741 to matrix element file.
 Write ALPHA SCF DENSITY MATRIX            from file      0 offset           0 length                3741 to matrix element file.
 No 2e integrals to process.
 Perform NBO analysis...executing G16NBO...

 *********************************** NBO 7.0 ***********************************
             N A T U R A L   A T O M I C   O R B I T A L   A N D
          N A T U R A L   B O N D   O R B I T A L   A N A L Y S I S
 *************************** Thijs Stuyver (I102501) ***************************
  (c) Copyright 1996-2021 Board of Regents of the University of Wisconsin System
      on behalf of the Theoretical Chemistry Institute.  All rights reserved.

          Cite this program [NBO 7.0.10 (8-Feb-2021)] as:

          NBO 7.0.  E. D. Glendening, J. K. Badenhoop, A. E. Reed,
          J. E. Carpenter, J. A. Bohmann, C. M. Morales, P. Karafiloglou,
          C. R. Landis, and F. Weinhold, Theoretical Chemistry Institute,
          University of Wisconsin, Madison, WI (2018)

 Filename set to /home/javialra/scratch/Gau-3249974

 Job title: NBO input


 NATURAL POPULATIONS:  Natural atomic orbital occupancies

  NAO Atom No lang   Type(AO)    Occupancy      Energy
 -------------------------------------------------------
   1    C  1  s      Cor( 1s)     1.99995     -10.23526
   2    C  1  s      Val( 2s)     1.05610      -0.13143
   3    C  1  s      Ryd( 3s)     0.00064       0.56584
   4    C  1  px     Val( 2p)     1.13796      -0.01838
   5    C  1  px     Ryd( 3p)     0.00250       0.60111
   6    C  1  py     Val( 2p)     1.18563      -0.03651
   7    C  1  py     Ryd( 3p)     0.00396       0.83877
   8    C  1  pz     Val( 2p)     1.00025      -0.11485
   9    C  1  pz     Ryd( 3p)     0.00176       0.53811
  10    C  1  dxy    Ryd( 3d)     0.00085       2.48601
  11    C  1  dxz    Ryd( 3d)     0.00068       1.95586
  12    C  1  dyz    Ryd( 3d)     0.00011       1.89166
  13    C  1  dx2y2  Ryd( 3d)     0.00086       2.48234
  14    C  1  dz2    Ryd( 3d)     0.00060       2.20774

  15    C  2  s      Cor( 1s)     1.99996     -10.24143
  16    C  2  s      Val( 2s)     0.96931      -0.08885
  17    C  2  s      Ryd( 3s)     0.00219       0.54407
  18    C  2  px     Val( 2p)     1.08529      -0.01096
  19    C  2  px     Ryd( 3p)     0.00461       0.71222
  20    C  2  py     Val( 2p)     1.18248      -0.04404
  21    C  2  py     Ryd( 3p)     0.00409       0.97679
  22    C  2  pz     Val( 2p)     0.99454      -0.10542
  23    C  2  pz     Ryd( 3p)     0.00087       0.57132
  24    C  2  dxy    Ryd( 3d)     0.00092       2.43131
  25    C  2  dxz    Ryd( 3d)     0.00096       1.95365
  26    C  2  dyz    Ryd( 3d)     0.00027       1.90026
  27    C  2  dx2y2  Ryd( 3d)     0.00097       2.54355
  28    C  2  dz2    Ryd( 3d)     0.00059       2.20911

  29    C  3  s      Cor( 1s)     1.99996     -10.24143
  30    C  3  s      Val( 2s)     0.96931      -0.08885
  31    C  3  s      Ryd( 3s)     0.00219       0.54407
  32    C  3  px     Val( 2p)     1.08529      -0.01096
  33    C  3  px     Ryd( 3p)     0.00461       0.71221
  34    C  3  py     Val( 2p)     1.18248      -0.04403
  35    C  3  py     Ryd( 3p)     0.00409       0.97679
  36    C  3  pz     Val( 2p)     0.99453      -0.10542
  37    C  3  pz     Ryd( 3p)     0.00087       0.57132
  38    C  3  dxy    Ryd( 3d)     0.00092       2.43132
  39    C  3  dxz    Ryd( 3d)     0.00096       1.95365
  40    C  3  dyz    Ryd( 3d)     0.00027       1.90027
  41    C  3  dx2y2  Ryd( 3d)     0.00097       2.54355
  42    C  3  dz2    Ryd( 3d)     0.00059       2.20911

  43    C  4  s      Cor( 1s)     1.99995     -10.23527
  44    C  4  s      Val( 2s)     1.05610      -0.13143
  45    C  4  s      Ryd( 3s)     0.00064       0.56584
  46    C  4  px     Val( 2p)     1.13796      -0.01838
  47    C  4  px     Ryd( 3p)     0.00250       0.60113
  48    C  4  py     Val( 2p)     1.18562      -0.03651
  49    C  4  py     Ryd( 3p)     0.00396       0.83876
  50    C  4  pz     Val( 2p)     1.00025      -0.11486
  51    C  4  pz     Ryd( 3p)     0.00176       0.53811
  52    C  4  dxy    Ryd( 3d)     0.00085       2.48600
  53    C  4  dxz    Ryd( 3d)     0.00068       1.95586
  54    C  4  dyz    Ryd( 3d)     0.00011       1.89166
  55    C  4  dx2y2  Ryd( 3d)     0.00086       2.48235
  56    C  4  dz2    Ryd( 3d)     0.00060       2.20774

  57    H  5  s      Val( 1s)     0.79281       0.08628
  58    H  5  s      Ryd( 2s)     0.00169       0.35038
  59    H  5  px     Ryd( 2p)     0.00008       1.83132
  60    H  5  py     Ryd( 2p)     0.00098       2.41907
  61    H  5  pz     Ryd( 2p)     0.00020       1.64297

  62    H  6  s      Val( 1s)     0.78315       0.09355
  63    H  6  s      Ryd( 2s)     0.00113       0.33657
  64    H  6  px     Ryd( 2p)     0.00065       2.23521
  65    H  6  py     Ryd( 2p)     0.00040       2.03062
  66    H  6  pz     Ryd( 2p)     0.00020       1.64505

  67    H  7  s      Val( 1s)     0.77623       0.09752
  68    H  7  s      Ryd( 2s)     0.00237       0.35385
  69    H  7  px     Ryd( 2p)     0.00005       1.93170
  70    H  7  py     Ryd( 2p)     0.00103       2.40943
  71    H  7  pz     Ryd( 2p)     0.00015       1.65755

  72    H  8  s      Val( 1s)     0.77623       0.09752
  73    H  8  s      Ryd( 2s)     0.00237       0.35384
  74    H  8  px     Ryd( 2p)     0.00005       1.93170
  75    H  8  py     Ryd( 2p)     0.00103       2.40944
  76    H  8  pz     Ryd( 2p)     0.00015       1.65755

  77    H  9  s      Val( 1s)     0.78315       0.09355
  78    H  9  s      Ryd( 2s)     0.00113       0.33657
  79    H  9  px     Ryd( 2p)     0.00065       2.23524
  80    H  9  py     Ryd( 2p)     0.00040       2.03059
  81    H  9  pz     Ryd( 2p)     0.00020       1.64505

  82    H 10  s      Val( 1s)     0.79281       0.08628
  83    H 10  s      Ryd( 2s)     0.00169       0.35039
  84    H 10  px     Ryd( 2p)     0.00008       1.83131
  85    H 10  py     Ryd( 2p)     0.00098       2.41908
  86    H 10  pz     Ryd( 2p)     0.00020       1.64297


 Summary of Natural Population Analysis:

                                     Natural Population
             Natural    ---------------------------------------------
  Atom No    Charge        Core      Valence    Rydberg      Total
 --------------------------------------------------------------------
    C  1   -0.39183      1.99995     4.37994    0.01194     6.39183
    C  2   -0.24705      1.99996     4.23161    0.01549     6.24705
    C  3   -0.24705      1.99996     4.23161    0.01549     6.24705
    C  4   -0.39183      1.99995     4.37994    0.01194     6.39183
    H  5    0.20425      0.00000     0.79281    0.00294     0.79575
    H  6    0.21446      0.00000     0.78315    0.00239     0.78554
    H  7    0.22017      0.00000     0.77623    0.00360     0.77983
    H  8    0.22017      0.00000     0.77623    0.00360     0.77983
    H  9    0.21446      0.00000     0.78315    0.00239     0.78554
    H 10    0.20425      0.00000     0.79281    0.00294     0.79575
 ====================================================================
 * Total *  0.00000      7.99981    21.92746    0.07273    30.00000

                                 Natural Population
 ---------------------------------------------------------
   Core                       7.99981 ( 99.9976% of    8)
   Valence                   21.92746 ( 99.6703% of   22)
   Natural Minimal Basis     29.92727 ( 99.7576% of   30)
   Natural Rydberg Basis      0.07273 (  0.2424% of   30)
 ---------------------------------------------------------

    Atom No         Natural Electron Configuration
 ----------------------------------------------------------------------------
      C  1      [core]2s( 1.06)2p( 3.32)3p( 0.01)
      C  2      [core]2s( 0.97)2p( 3.26)3p( 0.01)
      C  3      [core]2s( 0.97)2p( 3.26)3p( 0.01)
      C  4      [core]2s( 1.06)2p( 3.32)3p( 0.01)
      H  5            1s( 0.79)
      H  6            1s( 0.78)
      H  7            1s( 0.78)
      H  8            1s( 0.78)
      H  9            1s( 0.78)
      H 10            1s( 0.79)


 NATURAL BOND ORBITAL ANALYSIS:

                            Occupancies       Lewis Structure    Low   High
         Max    Occ     -------------------  -----------------   occ   occ
  Cycle  Ctr   Thresh    Lewis   non-Lewis     CR  BD  nC  LP    (L)   (NL)
 ============================================================================
    1     2     1.90    29.69792   0.30208      4  11   0   0     0      0
 ----------------------------------------------------------------------------

 Structure accepted: No low occupancy Lewis orbitals

 -------------------------------------------------------
   Core                      7.99981 ( 99.998% of   8)
   Valence Lewis            21.69811 ( 98.628% of  22)
  ==================      =============================
   Total Lewis              29.69792 ( 98.993% of  30)
  -----------------------------------------------------
   Valence non-Lewis         0.25700 (  0.857% of  30)
   Rydberg non-Lewis         0.04508 (  0.150% of  30)
  ==================      =============================
   Total non-Lewis           0.30208 (  1.007% of  30)
 -------------------------------------------------------


     (Occupancy)   Bond orbital / Coefficients / Hybrids
 ------------------ Lewis ------------------------------------------------------
   1. (1.99995) CR ( 1) C  1            s(100.00%)
                                         1.0000  0.0000  0.0000  0.0000  0.0000
                                         0.0000  0.0000  0.0000  0.0000  0.0000
                                         0.0000  0.0000  0.0000  0.0000
   2. (1.99996) CR ( 1) C  2            s(100.00%)
                                         1.0000  0.0000  0.0000  0.0000  0.0000
                                         0.0000  0.0000  0.0000  0.0000  0.0000
                                         0.0000  0.0000  0.0000  0.0000
   3. (1.99996) CR ( 1) C  3            s(100.00%)
                                         1.0000  0.0000  0.0000  0.0000  0.0000
                                         0.0000  0.0000  0.0000  0.0000  0.0000
                                         0.0000  0.0000  0.0000  0.0000
   4. (1.99995) CR ( 1) C  4            s(100.00%)
                                         1.0000  0.0000  0.0000  0.0000  0.0000
                                         0.0000  0.0000  0.0000  0.0000  0.0000
                                         0.0000  0.0000  0.0000  0.0000
   5. (1.98799) BD ( 1) C  1- C  2
               ( 48.76%)   0.6983* C  1 s( 40.92%)p 1.44( 58.99%)d 0.00(  0.08%)
                                         0.0000  0.6395  0.0174 -0.7091 -0.0209
                                        -0.2937 -0.0202  0.0000  0.0000  0.0166
                                         0.0000  0.0000  0.0168 -0.0167
               ( 51.24%)   0.7158* C  2 s( 38.75%)p 1.58( 61.18%)d 0.00(  0.07%)
                                         0.0000  0.6221  0.0237  0.7254  0.0310
                                         0.2906 -0.0109  0.0000  0.0000  0.0161
                                         0.0000  0.0000  0.0144 -0.0153
   6. (1.92651) BD ( 2) C  1- C  2
               ( 50.18%)   0.7084* C  1 s(  0.00%)p 1.00( 99.92%)d 0.00(  0.08%)
                                         0.0000  0.0000  0.0000  0.0000  0.0000
                                         0.0000  0.0000  0.9992 -0.0286  0.0000
                                        -0.0264 -0.0104  0.0000  0.0000
               ( 49.82%)   0.7058* C  2 s(  0.00%)p 1.00( 99.92%)d 0.00(  0.08%)
                                         0.0000  0.0000  0.0000  0.0000  0.0000
                                         0.0000  0.0000  0.9994 -0.0219  0.0000
                                         0.0229  0.0156  0.0000  0.0000
   7. (1.98536) BD ( 1) C  1- H  5
               ( 60.35%)   0.7769* C  1 s( 29.42%)p 2.40( 70.53%)d 0.00(  0.05%)
                                         0.0000  0.5423 -0.0107  0.1455  0.0234
                                         0.8268  0.0020  0.0000  0.0000  0.0034
                                         0.0000  0.0000 -0.0186 -0.0122
               ( 39.65%)   0.6297* H  5 s( 99.88%)p 0.00(  0.12%)
                                         0.9994 -0.0030 -0.0054 -0.0339  0.0000
   8. (1.98540) BD ( 1) C  1- H  6
               ( 60.72%)   0.7792* C  1 s( 29.64%)p 2.37( 70.31%)d 0.00(  0.05%)
                                         0.0000  0.5444 -0.0048  0.6883  0.0107
                                        -0.4786  0.0120  0.0000  0.0000 -0.0185
                                         0.0000  0.0000  0.0037 -0.0119
               ( 39.28%)   0.6267* H  6 s( 99.88%)p 0.00(  0.12%)
                                         0.9994 -0.0014 -0.0276  0.0204  0.0000
   9. (1.97729) BD ( 1) C  2- C  3
               ( 50.00%)   0.7071* C  2 s( 34.20%)p 1.92( 65.74%)d 0.00(  0.06%)
                                         0.0000  0.5848  0.0033 -0.6789 -0.0060
                                         0.4432 -0.0044  0.0000  0.0000 -0.0193
                                         0.0000  0.0000  0.0056 -0.0155
               ( 50.00%)   0.7071* C  3 s( 34.20%)p 1.92( 65.74%)d 0.00(  0.06%)
                                         0.0000  0.5848  0.0033  0.6789  0.0060
                                        -0.4432  0.0044  0.0000  0.0000 -0.0193
                                         0.0000  0.0000  0.0056 -0.0155
  10. (1.97515) BD ( 1) C  2- H  7
               ( 61.29%)   0.7829* C  2 s( 27.06%)p 2.69( 72.89%)d 0.00(  0.04%)
                                         0.0000  0.5196 -0.0248 -0.1056  0.0083
                                        -0.8471  0.0085  0.0000  0.0000  0.0041
                                         0.0000  0.0000 -0.0167 -0.0114
               ( 38.71%)   0.6221* H  7 s( 99.87%)p 0.00(  0.13%)
                                         0.9994 -0.0041  0.0030  0.0353  0.0000
  11. (1.98799) BD ( 1) C  3- C  4
               ( 51.24%)   0.7158* C  3 s( 38.75%)p 1.58( 61.18%)d 0.00(  0.07%)
                                         0.0000  0.6221  0.0237 -0.7254 -0.0310
                                        -0.2906  0.0109  0.0000  0.0000  0.0161
                                         0.0000  0.0000  0.0144 -0.0153
               ( 48.76%)   0.6983* C  4 s( 40.92%)p 1.44( 58.99%)d 0.00(  0.08%)
                                         0.0000  0.6395  0.0174  0.7091  0.0209
                                         0.2937  0.0202  0.0000  0.0000  0.0166
                                         0.0000  0.0000  0.0168 -0.0167
  12. (1.92651) BD ( 2) C  3- C  4
               ( 49.82%)   0.7058* C  3 s(  0.00%)p 1.00( 99.92%)d 0.00(  0.08%)
                                         0.0000  0.0000  0.0000  0.0000  0.0000
                                         0.0000  0.0000  0.9994 -0.0219  0.0000
                                        -0.0229 -0.0156  0.0000  0.0000
               ( 50.18%)   0.7084* C  4 s(  0.00%)p 1.00( 99.92%)d 0.00(  0.08%)
                                         0.0000  0.0000  0.0000  0.0000  0.0000
                                         0.0000  0.0000  0.9992 -0.0286  0.0000
                                         0.0264  0.0104  0.0000  0.0000
  13. (1.97515) BD ( 1) C  3- H  8
               ( 61.29%)   0.7829* C  3 s( 27.07%)p 2.69( 72.89%)d 0.00(  0.04%)
                                         0.0000  0.5197 -0.0248  0.1056 -0.0083
                                         0.8471 -0.0085  0.0000  0.0000  0.0041
                                         0.0000  0.0000 -0.0167 -0.0114
               ( 38.71%)   0.6221* H  8 s( 99.87%)p 0.00(  0.13%)
                                         0.9994 -0.0041 -0.0030 -0.0353  0.0000
  14. (1.98540) BD ( 1) C  4- H  9
               ( 60.72%)   0.7792* C  4 s( 29.64%)p 2.37( 70.31%)d 0.00(  0.05%)
                                         0.0000  0.5444 -0.0048 -0.6884 -0.0107
                                         0.4785 -0.0120  0.0000  0.0000 -0.0185
                                         0.0000  0.0000  0.0037 -0.0119
               ( 39.28%)   0.6267* H  9 s( 99.88%)p 0.00(  0.12%)
                                         0.9994 -0.0014  0.0276 -0.0204  0.0000
  15. (1.98536) BD ( 1) C  4- H 10
               ( 60.35%)   0.7769* C  4 s( 29.42%)p 2.40( 70.53%)d 0.00(  0.05%)
                                         0.0000  0.5423 -0.0107 -0.1454 -0.0234
                                        -0.8268 -0.0020  0.0000  0.0000  0.0034
                                         0.0000  0.0000 -0.0186 -0.0122
               ( 39.65%)   0.6297* H 10 s( 99.88%)p 0.00(  0.12%)
                                         0.9994 -0.0030  0.0054  0.0339  0.0000
 ---------------- non-Lewis ----------------------------------------------------
  16. (0.00713) BD*( 1) C  1- C  2
               ( 51.24%)   0.7158* C  1 s( 40.92%)p 1.44( 58.99%)d 0.00(  0.08%)
                                         0.0000  0.6395  0.0174 -0.7091 -0.0209
                                        -0.2937 -0.0202  0.0000  0.0000  0.0166
                                         0.0000  0.0000  0.0168 -0.0167
               ( 48.76%)  -0.6983* C  2 s( 38.75%)p 1.58( 61.18%)d 0.00(  0.07%)
                                         0.0000  0.6221  0.0237  0.7254  0.0310
                                         0.2906 -0.0109  0.0000  0.0000  0.0161
                                         0.0000  0.0000  0.0144 -0.0153
  17. (0.07096) BD*( 2) C  1- C  2
               ( 49.82%)   0.7058* C  1 s(  0.00%)p 1.00( 99.92%)d 0.00(  0.08%)
                                         0.0000  0.0000  0.0000  0.0000  0.0000
                                         0.0000  0.0000 -0.9992  0.0286  0.0000
                                         0.0264  0.0104  0.0000  0.0000
               ( 50.18%)  -0.7084* C  2 s(  0.00%)p 1.00( 99.92%)d 0.00(  0.08%)
                                         0.0000  0.0000  0.0000  0.0000  0.0000
                                         0.0000  0.0000 -0.9994  0.0219  0.0000
                                        -0.0229 -0.0156  0.0000  0.0000
  18. (0.01085) BD*( 1) C  1- H  5
               ( 39.65%)   0.6297* C  1 s( 29.42%)p 2.40( 70.53%)d 0.00(  0.05%)
                                         0.0000 -0.5423  0.0107 -0.1455 -0.0234
                                        -0.8268 -0.0020  0.0000  0.0000 -0.0034
                                         0.0000  0.0000  0.0186  0.0122
               ( 60.35%)  -0.7769* H  5 s( 99.88%)p 0.00(  0.12%)
                                        -0.9994  0.0030  0.0054  0.0339  0.0000
  19. (0.00701) BD*( 1) C  1- H  6
               ( 39.28%)   0.6267* C  1 s( 29.64%)p 2.37( 70.31%)d 0.00(  0.05%)
                                         0.0000 -0.5444  0.0048 -0.6883 -0.0107
                                         0.4786 -0.0120  0.0000  0.0000  0.0185
                                         0.0000  0.0000 -0.0037  0.0119
               ( 60.72%)  -0.7792* H  6 s( 99.88%)p 0.00(  0.12%)
                                        -0.9994  0.0014  0.0276 -0.0204  0.0000
  20. (0.02364) BD*( 1) C  2- C  3
               ( 50.00%)   0.7071* C  2 s( 34.20%)p 1.92( 65.74%)d 0.00(  0.06%)
                                         0.0000  0.5848  0.0033 -0.6789 -0.0060
                                         0.4432 -0.0044  0.0000  0.0000 -0.0193
                                         0.0000  0.0000  0.0056 -0.0155
               ( 50.00%)  -0.7071* C  3 s( 34.20%)p 1.92( 65.74%)d 0.00(  0.06%)
                                         0.0000  0.5848  0.0033  0.6789  0.0060
                                        -0.4432  0.0044  0.0000  0.0000 -0.0193
                                         0.0000  0.0000  0.0056 -0.0155
  21. (0.02073) BD*( 1) C  2- H  7
               ( 38.71%)   0.6221* C  2 s( 27.06%)p 2.69( 72.89%)d 0.00(  0.04%)
                                         0.0000 -0.5196  0.0248  0.1056 -0.0083
                                         0.8471 -0.0085  0.0000  0.0000 -0.0041
                                         0.0000  0.0000  0.0167  0.0114
               ( 61.29%)  -0.7829* H  7 s( 99.87%)p 0.00(  0.13%)
                                        -0.9994  0.0041 -0.0030 -0.0353  0.0000
  22. (0.00713) BD*( 1) C  3- C  4
               ( 48.76%)   0.6983* C  3 s( 38.75%)p 1.58( 61.18%)d 0.00(  0.07%)
                                         0.0000 -0.6221 -0.0237  0.7254  0.0310
                                         0.2906 -0.0109  0.0000  0.0000 -0.0161
                                         0.0000  0.0000 -0.0144  0.0153
               ( 51.24%)  -0.7158* C  4 s( 40.92%)p 1.44( 58.99%)d 0.00(  0.08%)
                                         0.0000 -0.6395 -0.0174 -0.7091 -0.0209
                                        -0.2937 -0.0202  0.0000  0.0000 -0.0166
                                         0.0000  0.0000 -0.0168  0.0167
  23. (0.07096) BD*( 2) C  3- C  4
               ( 50.18%)   0.7084* C  3 s(  0.00%)p 1.00( 99.92%)d 0.00(  0.08%)
                                         0.0000  0.0000  0.0000  0.0000  0.0000
                                         0.0000  0.0000  0.9994 -0.0219  0.0000
                                        -0.0229 -0.0156  0.0000  0.0000
               ( 49.82%)  -0.7058* C  4 s(  0.00%)p 1.00( 99.92%)d 0.00(  0.08%)
                                         0.0000  0.0000  0.0000  0.0000  0.0000
                                         0.0000  0.0000  0.9992 -0.0286  0.0000
                                         0.0264  0.0104  0.0000  0.0000
  24. (0.02073) BD*( 1) C  3- H  8
               ( 38.71%)   0.6221* C  3 s( 27.07%)p 2.69( 72.89%)d 0.00(  0.04%)
                                         0.0000 -0.5197  0.0248 -0.1056  0.0083
                                        -0.8471  0.0085  0.0000  0.0000 -0.0041
                                         0.0000  0.0000  0.0167  0.0114
               ( 61.29%)  -0.7829* H  8 s( 99.87%)p 0.00(  0.13%)
                                        -0.9994  0.0041  0.0030  0.0353  0.0000
  25. (0.00701) BD*( 1) C  4- H  9
               ( 39.28%)   0.6267* C  4 s( 29.64%)p 2.37( 70.31%)d 0.00(  0.05%)
                                         0.0000 -0.5444  0.0048  0.6884  0.0107
                                        -0.4785  0.0120  0.0000  0.0000  0.0185
                                         0.0000  0.0000 -0.0037  0.0119
               ( 60.72%)  -0.7792* H  9 s( 99.88%)p 0.00(  0.12%)
                                        -0.9994  0.0014 -0.0276  0.0204  0.0000
  26. (0.01085) BD*( 1) C  4- H 10
               ( 39.65%)   0.6297* C  4 s( 29.42%)p 2.40( 70.53%)d 0.00(  0.05%)
                                         0.0000 -0.5423  0.0107  0.1454  0.0234
                                         0.8268  0.0020  0.0000  0.0000 -0.0034
                                         0.0000  0.0000  0.0186  0.0122
               ( 60.35%)  -0.7769* H 10 s( 99.88%)p 0.00(  0.12%)
                                        -0.9994  0.0030 -0.0054 -0.0339  0.0000
  27. (0.00472) RY ( 1) C  1            s(  1.26%)p73.52( 92.93%)d 4.59(  5.80%)
                                         0.0000  0.0064  0.1122 -0.0071 -0.4685
                                         0.0143  0.8424  0.0000  0.0000 -0.1647
                                         0.0000  0.0000  0.1757 -0.0055
  28. (0.00070) RY ( 2) C  1            s(  0.00%)p 1.00( 95.45%)d 0.05(  4.55%)
                                         0.0000  0.0000  0.0000  0.0000  0.0000
                                         0.0000  0.0000  0.0223  0.9767  0.0000
                                        -0.2133  0.0029  0.0000  0.0000
  29. (0.00048) RY ( 3) C  1            s(  8.95%)p 9.68( 86.64%)d 0.49(  4.41%)
                                         0.0000  0.0015  0.2991  0.0341 -0.7681
                                         0.0238 -0.5241  0.0000  0.0000 -0.1698
                                         0.0000  0.0000  0.1149  0.0455
  30. (0.00009) RY ( 4) C  1            s( 77.63%)p 0.07(  5.30%)d 0.22( 17.07%)
  31. (0.00001) RY ( 5) C  1            s(  1.54%)p 7.05( 10.89%)d56.72( 87.57%)
  32. (0.00001) RY ( 6) C  1            s(  0.47%)p 5.29(  2.47%)d99.99( 97.06%)
  33. (0.00000) RY ( 7) C  1            s(  0.00%)p 1.00(  4.44%)d21.53( 95.56%)
  34. (0.00000) RY ( 8) C  1            s(  0.00%)p 1.00(  0.19%)d99.99( 99.81%)
  35. (0.00000) RY ( 9) C  1            s( 10.17%)p 0.19(  1.92%)d 8.65( 87.91%)
  36. (0.00595) RY ( 1) C  2            s(  8.36%)p10.28( 85.97%)d 0.68(  5.67%)
                                         0.0000  0.0052  0.2891  0.0033 -0.5558
                                        -0.0231 -0.7418  0.0000  0.0000 -0.0138
                                         0.0000  0.0000  0.2374 -0.0131
  37. (0.00266) RY ( 2) C  2            s(  2.51%)p35.02( 87.76%)d 3.89(  9.74%)
                                         0.0000 -0.0192  0.1571 -0.0207  0.7999
                                        -0.0151 -0.4868  0.0000  0.0000 -0.2769
                                         0.0000  0.0000  0.1438  0.0065
  38. (0.00127) RY ( 3) C  2            s(  0.00%)p 1.00( 46.92%)d 1.13( 53.08%)
                                         0.0000  0.0000  0.0001  0.0000  0.0000
                                         0.0000  0.0000 -0.0301 -0.6843  0.0000
                                         0.7222 -0.0959  0.0000  0.0000
  39. (0.00043) RY ( 4) C  2            s( 85.95%)p 0.10(  8.86%)d 0.06(  5.19%)
                                         0.0000 -0.0038  0.9271 -0.0217  0.0764
                                        -0.0211  0.2861  0.0000  0.0000  0.2232
                                        -0.0001  0.0000 -0.0454 -0.0067
  40. (0.00006) RY ( 5) C  2            s(  1.60%)p 1.31(  2.10%)d60.00( 96.30%)
  41. (0.00004) RY ( 6) C  2            s(  1.10%)p13.63( 14.98%)d76.34( 83.92%)
  42. (0.00001) RY ( 7) C  2            s(  0.46%)p 1.14(  0.53%)d99.99( 99.01%)
  43. (0.00000) RY ( 8) C  2            s(  0.00%)p 1.00(  1.79%)d55.02( 98.21%)
  44. (0.00000) RY ( 9) C  2            s(  0.00%)p 1.00( 51.37%)d 0.95( 48.63%)
  45. (0.00595) RY ( 1) C  3            s(  8.36%)p10.28( 85.97%)d 0.68(  5.67%)
                                         0.0000  0.0052  0.2891 -0.0033  0.5558
                                         0.0231  0.7418  0.0000  0.0000 -0.0138
                                         0.0000  0.0000  0.2374 -0.0131
  46. (0.00266) RY ( 2) C  3            s(  2.51%)p35.02( 87.76%)d 3.89(  9.74%)
                                         0.0000 -0.0192  0.1571  0.0207 -0.7999
                                         0.0151  0.4868  0.0000  0.0000 -0.2769
                                         0.0000  0.0000  0.1438  0.0065
  47. (0.00127) RY ( 3) C  3            s(  0.00%)p 1.00( 46.92%)d 1.13( 53.08%)
                                         0.0000  0.0000  0.0001  0.0000  0.0000
                                         0.0000  0.0000  0.0301  0.6843  0.0000
                                         0.7222 -0.0959  0.0000  0.0000
  48. (0.00043) RY ( 4) C  3            s( 85.95%)p 0.10(  8.86%)d 0.06(  5.19%)
                                         0.0000 -0.0038  0.9271  0.0217 -0.0764
                                         0.0211 -0.2861  0.0000  0.0000  0.2231
                                        -0.0001  0.0000 -0.0454 -0.0067
  49. (0.00006) RY ( 5) C  3            s(  1.60%)p 1.31(  2.10%)d60.05( 96.30%)
  50. (0.00004) RY ( 6) C  3            s(  1.10%)p13.62( 14.98%)d76.29( 83.92%)
  51. (0.00001) RY ( 7) C  3            s(  0.46%)p 1.14(  0.53%)d99.99( 99.01%)
  52. (0.00000) RY ( 8) C  3            s(  0.00%)p 1.00(  0.10%)d99.99( 99.90%)
  53. (0.00000) RY ( 9) C  3            s(  0.00%)p 1.00( 53.06%)d 0.88( 46.94%)
  54. (0.00472) RY ( 1) C  4            s(  1.26%)p73.51( 92.93%)d 4.59(  5.80%)
                                         0.0000  0.0064  0.1123  0.0071  0.4685
                                        -0.0143 -0.8423  0.0000  0.0000 -0.1647
                                         0.0000  0.0000  0.1757 -0.0055
  55. (0.00070) RY ( 2) C  4            s(  0.00%)p 1.00( 95.45%)d 0.05(  4.55%)
                                         0.0000  0.0000  0.0000  0.0000  0.0000
                                         0.0000  0.0000  0.0223  0.9767  0.0000
                                         0.2133 -0.0029  0.0000  0.0000
  56. (0.00048) RY ( 3) C  4            s(  8.95%)p 9.68( 86.64%)d 0.49(  4.41%)
                                         0.0000  0.0015  0.2991 -0.0341  0.7681
                                        -0.0238  0.5241  0.0000  0.0000 -0.1698
                                         0.0000  0.0000  0.1149  0.0455
  57. (0.00009) RY ( 4) C  4            s( 77.63%)p 0.07(  5.30%)d 0.22( 17.07%)
  58. (0.00001) RY ( 5) C  4            s(  1.54%)p 7.06( 10.89%)d56.77( 87.57%)
  59. (0.00001) RY ( 6) C  4            s(  0.47%)p 5.30(  2.47%)d99.99( 97.06%)
  60. (0.00000) RY ( 7) C  4            s(  0.00%)p 1.00(  4.37%)d21.90( 95.63%)
  61. (0.00000) RY ( 8) C  4            s(  0.00%)p 1.00(  0.26%)d99.99( 99.74%)
  62. (0.00000) RY ( 9) C  4            s( 10.17%)p 0.19(  1.92%)d 8.64( 87.91%)
  63. (0.00172) RY ( 1) H  5            s( 98.57%)p 0.01(  1.43%)
                                         0.0070  0.9928  0.0116  0.1188  0.0000
  64. (0.00020) RY ( 2) H  5            s(  0.00%)p 1.00(100.00%)
                                         0.0000  0.0000  0.0000  0.0000  1.0000
  65. (0.00006) RY ( 3) H  5            s(  0.27%)p99.99( 99.73%)
  66. (0.00003) RY ( 4) H  5            s(  1.28%)p77.33( 98.72%)
  67. (0.00116) RY ( 1) H  6            s( 97.54%)p 0.03(  2.46%)
                                         0.0067  0.9876  0.1336 -0.0819  0.0000
  68. (0.00020) RY ( 2) H  6            s(  0.00%)p 1.00(100.00%)
                                         0.0000  0.0000  0.0000  0.0000  1.0000
  69. (0.00006) RY ( 3) H  6            s(  0.25%)p99.99( 99.75%)
  70. (0.00003) RY ( 4) H  6            s(  2.33%)p41.95( 97.67%)
  71. (0.00240) RY ( 1) H  7            s( 99.02%)p 0.01(  0.98%)
                                         0.0073  0.9951 -0.0419 -0.0896  0.0000
  72. (0.00015) RY ( 2) H  7            s(  0.00%)p 1.00(100.00%)
                                         0.0000  0.0000  0.0000  0.0000  1.0000
  73. (0.00004) RY ( 3) H  7            s(  0.77%)p99.99( 99.23%)
  74. (0.00003) RY ( 4) H  7            s(  0.33%)p99.99( 99.67%)
  75. (0.00240) RY ( 1) H  8            s( 99.02%)p 0.01(  0.98%)
                                         0.0073  0.9951  0.0419  0.0896  0.0000
  76. (0.00015) RY ( 2) H  8            s(  0.00%)p 1.00(100.00%)
                                         0.0000  0.0000  0.0000  0.0000  1.0000
  77. (0.00004) RY ( 3) H  8            s(  0.77%)p99.99( 99.23%)
  78. (0.00003) RY ( 4) H  8            s(  0.33%)p99.99( 99.67%)
  79. (0.00116) RY ( 1) H  9            s( 97.54%)p 0.03(  2.46%)
                                         0.0067  0.9876 -0.1336  0.0819  0.0000
  80. (0.00020) RY ( 2) H  9            s(  0.00%)p 1.00(100.00%)
                                         0.0000  0.0000  0.0000  0.0000  1.0000
  81. (0.00006) RY ( 3) H  9            s(  0.25%)p99.99( 99.75%)
  82. (0.00003) RY ( 4) H  9            s(  2.33%)p41.95( 97.67%)
  83. (0.00172) RY ( 1) H 10            s( 98.57%)p 0.01(  1.43%)
                                         0.0070  0.9928 -0.0116 -0.1188  0.0000
  84. (0.00020) RY ( 2) H 10            s(  0.00%)p 1.00(100.00%)
                                         0.0000  0.0000  0.0000  0.0000  1.0000
  85. (0.00006) RY ( 3) H 10            s(  0.27%)p99.99( 99.73%)
  86. (0.00003) RY ( 4) H 10            s(  1.28%)p77.33( 98.72%)


 NHO DIRECTIONALITY AND BOND BENDING (deviation from line of nuclear centers at
                                      the position of maximum hybrid amplitude)

         [Thresholds for printing:  angular deviation  >  1.0 degree]
                                    p- or d-character  > 25.0%
                                    orbital occupancy  >  0.10e

                        Line of Centers        Hybrid 1             Hybrid 2
                        ---------------  -------------------  ------------------
           NBO            Theta   Phi    Theta   Phi    Dev   Theta   Phi    Dev
 ===============================================================================
   6. BD ( 2) C  1- C  2   90.0  202.4   179.0  201.3  89.0   179.0   28.8  89.0
   9. BD ( 1) C  2- C  3   90.0  146.6    90.0  145.4   1.2    90.0  325.4   1.2
  12. BD ( 2) C  3- C  4   90.0  202.4     1.0  208.8  89.0     1.0   21.3  89.0


 SECOND ORDER PERTURBATION THEORY ANALYSIS OF FOCK MATRIX IN NBO BASIS

     Threshold for printing:   0.50 kcal/mol
                                                          E(2) E(NL)-E(L) F(L,NL)
      Donor (L) NBO              Acceptor (NL) NBO      kcal/mol   a.u.    a.u.
 ===============================================================================

 within unit  1
    5. BD ( 1) C  1- C  2      18. BD*( 1) C  1- H  5      0.84    1.13   0.027
    5. BD ( 1) C  1- C  2      19. BD*( 1) C  1- H  6      1.03    1.13   0.030
    5. BD ( 1) C  1- C  2      20. BD*( 1) C  2- C  3      2.32    1.16   0.046
    5. BD ( 1) C  1- C  2      21. BD*( 1) C  2- H  7      1.53    1.13   0.037
    5. BD ( 1) C  1- C  2      22. BD*( 1) C  3- C  4      1.54    1.31   0.040
    5. BD ( 1) C  1- C  2      45. RY ( 1) C  3            2.72    1.63   0.059
    5. BD ( 1) C  1- C  2      71. RY ( 1) H  7            0.74    1.02   0.025
    6. BD ( 2) C  1- C  2      23. BD*( 2) C  3- C  4     15.79    0.34   0.065
    6. BD ( 2) C  1- C  2      47. RY ( 3) C  3            1.42    1.58   0.042
    7. BD ( 1) C  1- H  5      16. BD*( 1) C  1- C  2      0.56    1.17   0.023
    7. BD ( 1) C  1- H  5      21. BD*( 1) C  2- H  7      5.03    0.98   0.063
    7. BD ( 1) C  1- H  5      37. RY ( 2) C  2            1.61    1.43   0.043
    8. BD ( 1) C  1- H  6      16. BD*( 1) C  1- C  2      0.67    1.17   0.025
    8. BD ( 1) C  1- H  6      20. BD*( 1) C  2- C  3      5.20    1.02   0.065
    8. BD ( 1) C  1- H  6      21. BD*( 1) C  2- H  7      0.62    0.98   0.022
    8. BD ( 1) C  1- H  6      36. RY ( 1) C  2            0.76    1.49   0.030
    9. BD ( 1) C  2- C  3      16. BD*( 1) C  1- C  2      2.33    1.26   0.048
    9. BD ( 1) C  2- C  3      19. BD*( 1) C  1- H  6      2.13    1.08   0.043
    9. BD ( 1) C  2- C  3      21. BD*( 1) C  2- H  7      0.50    1.08   0.021
    9. BD ( 1) C  2- C  3      22. BD*( 1) C  3- C  4      2.33    1.26   0.048
    9. BD ( 1) C  2- C  3      24. BD*( 1) C  3- H  8      0.50    1.08   0.021
    9. BD ( 1) C  2- C  3      25. BD*( 1) C  4- H  9      2.13    1.08   0.043
    9. BD ( 1) C  2- C  3      27. RY ( 1) C  1            2.33    1.61   0.055
    9. BD ( 1) C  2- C  3      54. RY ( 1) C  4            2.33    1.61   0.055
   10. BD ( 1) C  2- H  7      16. BD*( 1) C  1- C  2      0.82    1.16   0.028
   10. BD ( 1) C  2- H  7      18. BD*( 1) C  1- H  5      4.31    0.97   0.058
   10. BD ( 1) C  2- H  7      19. BD*( 1) C  1- H  6      0.60    0.98   0.022
   10. BD ( 1) C  2- H  7      24. BD*( 1) C  3- H  8      3.36    0.98   0.051
   10. BD ( 1) C  2- H  7      27. RY ( 1) C  1            0.78    1.51   0.031
   10. BD ( 1) C  2- H  7      45. RY ( 1) C  3            0.59    1.48   0.026
   11. BD ( 1) C  3- C  4      16. BD*( 1) C  1- C  2      1.54    1.31   0.040
   11. BD ( 1) C  3- C  4      20. BD*( 1) C  2- C  3      2.32    1.16   0.046
   11. BD ( 1) C  3- C  4      24. BD*( 1) C  3- H  8      1.53    1.13   0.037
   11. BD ( 1) C  3- C  4      25. BD*( 1) C  4- H  9      1.03    1.13   0.030
   11. BD ( 1) C  3- C  4      26. BD*( 1) C  4- H 10      0.84    1.13   0.027
   11. BD ( 1) C  3- C  4      36. RY ( 1) C  2            2.72    1.63   0.059
   11. BD ( 1) C  3- C  4      75. RY ( 1) H  8            0.74    1.02   0.025
   12. BD ( 2) C  3- C  4      17. BD*( 2) C  1- C  2     15.79    0.34   0.065
   12. BD ( 2) C  3- C  4      38. RY ( 3) C  2            1.42    1.58   0.042
   13. BD ( 1) C  3- H  8      21. BD*( 1) C  2- H  7      3.36    0.98   0.051
   13. BD ( 1) C  3- H  8      22. BD*( 1) C  3- C  4      0.82    1.16   0.028
   13. BD ( 1) C  3- H  8      25. BD*( 1) C  4- H  9      0.60    0.98   0.022
   13. BD ( 1) C  3- H  8      26. BD*( 1) C  4- H 10      4.31    0.97   0.058
   13. BD ( 1) C  3- H  8      36. RY ( 1) C  2            0.59    1.48   0.026
   13. BD ( 1) C  3- H  8      54. RY ( 1) C  4            0.78    1.51   0.031
   14. BD ( 1) C  4- H  9      20. BD*( 1) C  2- C  3      5.20    1.02   0.065
   14. BD ( 1) C  4- H  9      22. BD*( 1) C  3- C  4      0.67    1.17   0.025
   14. BD ( 1) C  4- H  9      24. BD*( 1) C  3- H  8      0.62    0.98   0.022
   14. BD ( 1) C  4- H  9      45. RY ( 1) C  3            0.76    1.49   0.030
   15. BD ( 1) C  4- H 10      22. BD*( 1) C  3- C  4      0.56    1.17   0.023
   15. BD ( 1) C  4- H 10      24. BD*( 1) C  3- H  8      5.03    0.98   0.063
   15. BD ( 1) C  4- H 10      46. RY ( 2) C  3            1.61    1.43   0.043


 NATURAL BOND ORBITALS (Summary):

                                                     Principal Delocalizations
           NBO                 Occupancy    Energy   (geminal,vicinal,remote)
 ===============================================================================
 Molecular unit  1  (C4H6)
 ------ Lewis --------------------------------------
    1. CR ( 1) C  1             1.99995   -10.23526
    2. CR ( 1) C  2             1.99996   -10.24143
    3. CR ( 1) C  3             1.99996   -10.24143
    4. CR ( 1) C  4             1.99995   -10.23527
    5. BD ( 1) C  1- C  2       1.98799    -0.63598  45(v),20(g),22(v),21(g)
                                                     19(g),18(g),71(v)
    6. BD ( 2) C  1- C  2       1.92651    -0.28059  23(v),47(v)
    7. BD ( 1) C  1- H  5       1.98536    -0.49188  21(v),37(v),16(g)
    8. BD ( 1) C  1- H  6       1.98540    -0.49196  20(v),36(v),16(g),21(v)
    9. BD ( 1) C  2- C  3       1.97729    -0.58287  16(g),22(g),27(v),54(v)
                                                     25(v),19(v),21(g),24(g)
   10. BD ( 1) C  2- H  7       1.97515    -0.48513  18(v),24(v),16(g),27(v)
                                                     19(v),45(v)
   11. BD ( 1) C  3- C  4       1.98799    -0.63598  36(v),20(g),16(v),24(g)
                                                     25(g),26(g),75(v)
   12. BD ( 2) C  3- C  4       1.92651    -0.28059  17(v),38(v)
   13. BD ( 1) C  3- H  8       1.97515    -0.48514  26(v),21(v),22(g),54(v)
                                                     25(v),36(v)
   14. BD ( 1) C  4- H  9       1.98540    -0.49197  20(v),45(v),22(g),24(v)
   15. BD ( 1) C  4- H 10       1.98536    -0.49188  24(v),46(v),22(g)
 ------ non-Lewis ----------------------------------
   16. BD*( 1) C  1- C  2       0.00713     0.67721
   17. BD*( 2) C  1- C  2       0.07096     0.05667
   18. BD*( 1) C  1- H  5       0.01085     0.48947
   19. BD*( 1) C  1- H  6       0.00701     0.49794
   20. BD*( 1) C  2- C  3       0.02364     0.52429
   21. BD*( 1) C  2- H  7       0.02073     0.49238
   22. BD*( 1) C  3- C  4       0.00713     0.67721
   23. BD*( 2) C  3- C  4       0.07096     0.05667
   24. BD*( 1) C  3- H  8       0.02073     0.49238
   25. BD*( 1) C  4- H  9       0.00701     0.49794
   26. BD*( 1) C  4- H 10       0.01085     0.48947
   27. RY ( 1) C  1             0.00472     1.02944
   28. RY ( 2) C  1             0.00070     0.59224
   29. RY ( 3) C  1             0.00048     0.60348
   30. RY ( 4) C  1             0.00009     0.84446
   31. RY ( 5) C  1             0.00001     2.24204
   32. RY ( 6) C  1             0.00001     2.30415
   33. RY ( 7) C  1             0.00000     1.88843
   34. RY ( 8) C  1             0.00000     1.90734
   35. RY ( 9) C  1             0.00000     2.13390
   36. RY ( 1) C  2             0.00595     0.99457
   37. RY ( 2) C  2             0.00266     0.94118
   38. RY ( 3) C  2             0.00127     1.30375
   39. RY ( 4) C  2             0.00043     0.69859
   40. RY ( 5) C  2             0.00006     2.30921
   41. RY ( 6) C  2             0.00004     2.17555
   42. RY ( 7) C  2             0.00001     2.28015
   43. RY ( 8) C  2             0.00000     1.87648
   44. RY ( 9) C  2             0.00000     1.24628
   45. RY ( 1) C  3             0.00595     0.99456
   46. RY ( 2) C  3             0.00266     0.94118
   47. RY ( 3) C  3             0.00127     1.30372
   48. RY ( 4) C  3             0.00043     0.69856
   49. RY ( 5) C  3             0.00006     2.30929
   50. RY ( 6) C  3             0.00004     2.17549
   51. RY ( 7) C  3             0.00001     2.28014
   52. RY ( 8) C  3             0.00000     1.90307
   53. RY ( 9) C  3             0.00000     1.21972
   54. RY ( 1) C  4             0.00472     1.02945
   55. RY ( 2) C  4             0.00070     0.59224
   56. RY ( 3) C  4             0.00048     0.60348
   57. RY ( 4) C  4             0.00009     0.84442
   58. RY ( 5) C  4             0.00001     2.24207
   59. RY ( 6) C  4             0.00001     2.30418
   60. RY ( 7) C  4             0.00000     1.88562
   61. RY ( 8) C  4             0.00000     1.91014
   62. RY ( 9) C  4             0.00000     2.13388
   63. RY ( 1) H  5             0.00172     0.39816
   64. RY ( 2) H  5             0.00020     1.64297
   65. RY ( 3) H  5             0.00006     1.88441
   66. RY ( 4) H  5             0.00003     2.30721
   67. RY ( 1) H  6             0.00116     0.41440
   68. RY ( 2) H  6             0.00020     1.64505
   69. RY ( 3) H  6             0.00006     1.89802
   70. RY ( 4) H  6             0.00003     2.27934
   71. RY ( 1) H  7             0.00240     0.38719
   72. RY ( 2) H  7             0.00015     1.65755
   73. RY ( 3) H  7             0.00004     2.11554
   74. RY ( 4) H  7             0.00003     2.18047
   75. RY ( 1) H  8             0.00240     0.38719
   76. RY ( 2) H  8             0.00015     1.65755
   77. RY ( 3) H  8             0.00004     2.11555
   78. RY ( 4) H  8             0.00003     2.18046
   79. RY ( 1) H  9             0.00116     0.41440
   80. RY ( 2) H  9             0.00020     1.64505
   81. RY ( 3) H  9             0.00006     1.89802
   82. RY ( 4) H  9             0.00003     2.27934
   83. RY ( 1) H 10             0.00172     0.39816
   84. RY ( 2) H 10             0.00020     1.64297
   85. RY ( 3) H 10             0.00006     1.88440
   86. RY ( 4) H 10             0.00003     2.30722
          -------------------------------
                 Total Lewis   29.69792  ( 98.9931%)
           Valence non-Lewis    0.25700  (  0.8567%)
           Rydberg non-Lewis    0.04508  (  0.1503%)
          -------------------------------
               Total unit  1   30.00000  (100.0000%)
              Charge unit  1    0.00000

 $CHOOSE
   BOND D 1 2 S 1 5 S 1 6 S 2 3 S 2 7 D 3 4 S 3 8 S 4 9 S 4 10 END
 $END

 NBO analysis completed in 0.12 CPU seconds (1 wall second)
 Maximum scratch memory used by NBO was 375043 words (2.86 MB)
 Maximum scratch memory used by G16NBO was 19857 words (0.15 MB)

 Opening RunExU unformatted file "/home/javialra/scratch/Gau-3249974.EUF"
 Read unf file /home/javialra/scratch/Gau-3249974.EUF:
 Label Gaussian matrix elements                                         IVers= 2 NLab= 2 Version=ES64L-G16RevC.01
 Title NBO input                                                       
 NAtoms=    10 NBasis=    86 NBsUse=    86 ICharg=     0 Multip=     1 NE=    30 Len12L=8 Len4L=8 IOpCl= 0 ICGU=111
 GAUSSIAN SCALARS                    NI= 1 NR= 1 NTot=       1 LenBuf=    2 NRI=1 N=    1000
 NPA CHARGES                         NI= 0 NR= 1 NTot=      10 LenBuf= 4000 NRI=1 N=      10
 Recovered energy= -155.680472175     dipole=     -0.000007239276      0.000001351836      0.000005027571
 Unable to Open any file for archive entry.
 1\1\GINC-DALE\SP\RPBE1PBE\def2SVP\C4H6\JAVIALRA\05-Sep-2024\0\\# pbe1p
 be def2svp pop=NBO7\\NBO input\\0,1\C,0,1.842457,-0.14546,-0.187134\C,
 0,0.553025,-0.46041,-0.371223\C,0,-0.553031,0.460463,-0.160817\C,0,-1.
 842454,0.145475,-0.344908\H,0,2.140902,0.854861,0.14227\H,0,2.640239,-
 0.871887,-0.358091\H,0,0.288094,-1.472132,-0.701861\H,0,-0.288115,1.47
 2188,0.169821\H,0,-2.640269,0.871866,-0.173956\H,0,-2.140849,-0.854865
 ,-0.674302\\Version=ES64L-G16RevC.01\State=1-A\HF=-155.6804722\RMSD=7.
 213e-09\Dipole=-0.0000073,0.0000008,0.000005\Quadrupole=1.3033761,1.03
 86094,-2.3419854,-0.0421286,0.2574367,1.1586041\PG=C01 [X(C4H6)]\\@
 The archive entry for this job was punched.


 KNOWING HOW CONTENTED, FREE, AND JOYFUL IS LIFE IN
 THE REALMS OF SCIENCE, ONE FERVENTLY WISHES THAT
 MANY WOULD ENTER HER PORTALS.
   --  DMITRI IVANOVICH MENDELEEV
 "FIRST PRINCIPLES OF CHEMISTRY", LONGMANS, GREEN,
 AND CO.  LONDON, 1891
 Job cpu time:       0 days  0 hours 22 minutes 59.4 seconds.
 Elapsed time:       0 days  0 hours  0 minutes 25.3 seconds.
 File lengths (MBytes):  RWF=      6 Int=      0 D2E=      0 Chk=      1 Scr=      1
 Normal termination of Gaussian 16 at Thu Sep  5 14:20:40 2024.
