 Entering Gaussian System, Link 0=/opt/gaussian/g16/C01/g16/g16
 Input=r1_NBO.com
 Output=r1_NBO.log
 Initial command:
 /opt/gaussian/g16/C01/g16/l1.exe "/home/javialra/scratch/Gau-616462.inp" -scrdir="/home/javialra/scratch/"
 Entering Link 1 = /opt/gaussian/g16/C01/g16/l1.exe PID=    616463.
  
 Copyright (c) 1988-2019, Gaussian, Inc.  All Rights Reserved.
  
 This is part of the Gaussian(R) 16 program.  It is based on
 the Gaussian(R) 09 system (copyright 2009, Gaussian, Inc.),
 the Gaussian(R) 03 system (copyright 2003, Gaussian, Inc.),
 the Gaussian(R) 98 system (copyright 1998, Gaussian, Inc.),
 the Gaussian(R) 94 system (copyright 1995, Gaussian, Inc.),
 the Gaussian 92(TM) system (copyright 1992, Gaussian, Inc.),
 the Gaussian 90(TM) system (copyright 1990, Gaussian, Inc.),
 the Gaussian 88(TM) system (copyright 1988, Gaussian, Inc.),
 the Gaussian 86(TM) system (copyright 1986, Carnegie Mellon
 University), and the Gaussian 82(TM) system (copyright 1983,
 Carnegie Mellon University). Gaussian is a federally registered
 trademark of Gaussian, Inc.
  
 This software contains proprietary and confidential information,
 including trade secrets, belonging to Gaussian, Inc.
  
 This software is provided under written license and may be
 used, copied, transmitted, or stored only in accord with that
 written license.
  
 The following legend is applicable only to US Government
 contracts under FAR:
  
                    RESTRICTED RIGHTS LEGEND
  
 Use, reproduction and disclosure by the US Government is
 subject to restrictions as set forth in subparagraphs (a)
 and (c) of the Commercial Computer Software - Restricted
 Rights clause in FAR 52.227-19.
  
 Gaussian, Inc.
 340 Quinnipiac St., Bldg. 40, Wallingford CT 06492
  
  
 ---------------------------------------------------------------
 Warning -- This program may not be used in any manner that
 competes with the business of Gaussian, Inc. or will provide
 assistance to any competitor of Gaussian, Inc.  The licensee
 of this program is prohibited from giving any competitor of
 Gaussian, Inc. access to this program.  By using this program,
 the user acknowledges that Gaussian, Inc. is engaged in the
 business of creating and licensing software in the field of
 computational chemistry and represents and warrants to the
 licensee that it is not a competitor of Gaussian, Inc. and that
 it will not use this program in any manner prohibited above.
 ---------------------------------------------------------------
  

 Cite this work as:
 Gaussian 16, Revision C.01,
 M. J. Frisch, G. W. Trucks, H. B. Schlegel, G. E. Scuseria, 
 M. A. Robb, J. R. Cheeseman, G. Scalmani, V. Barone, 
 G. A. Petersson, H. Nakatsuji, X. Li, M. Caricato, A. V. Marenich, 
 J. Bloino, B. G. Janesko, R. Gomperts, B. Mennucci, H. P. Hratchian, 
 J. V. Ortiz, A. F. Izmaylov, J. L. Sonnenberg, D. Williams-Young, 
 F. Ding, F. Lipparini, F. Egidi, J. Goings, B. Peng, A. Petrone, 
 T. Henderson, D. Ranasinghe, V. G. Zakrzewski, J. Gao, N. Rega, 
 G. Zheng, W. Liang, M. Hada, M. Ehara, K. Toyota, R. Fukuda, 
 J. Hasegawa, M. Ishida, T. Nakajima, Y. Honda, O. Kitao, H. Nakai, 
 T. Vreven, K. Throssell, J. A. Montgomery, Jr., J. E. Peralta, 
 F. Ogliaro, M. J. Bearpark, J. J. Heyd, E. N. Brothers, K. N. Kudin, 
 V. N. Staroverov, T. A. Keith, R. Kobayashi, J. Normand, 
 K. Raghavachari, A. P. Rendell, J. C. Burant, S. S. Iyengar, 
 J. Tomasi, M. Cossi, J. M. Millam, M. Klene, C. Adamo, R. Cammi, 
 J. W. Ochterski, R. L. Martin, K. Morokuma, O. Farkas, 
 J. B. Foresman, and D. J. Fox, Gaussian, Inc., Wallingford CT, 2019.
 
 ******************************************
 Gaussian 16:  ES64L-G16RevC.01  3-Jul-2019
                19-Jun-2024 
 ******************************************
 %nprocshared=64
 Will use up to   64 processors via shared memory.
 %mem=64000MB
 --------------------------
 # pbe1pbe def2svp pop=NBO7
 --------------------------
 1/38=1,172=1/1;
 2/12=2,17=6,18=5,40=1/2;
 3/5=43,7=101,11=2,25=1,30=1,74=-13/1,2,3;
 4//1;
 5/5=2,38=5/2;
 6/7=2,8=2,9=2,10=2,28=1,40=1,113=1,114=1,124=3103/1,12;
 99/5=1,9=1/99;
 ---------
 NBO input
 ---------
 Symbolic Z-matrix:
 Charge =  1 Multiplicity = 1
 O                     4.66603   1.36045   1.06121 
 C                     3.60066   0.81864   1.03765 
 C                     2.59229   0.8793    2.11414 
 C                     1.38435   0.33962   1.97197 
 N                     0.98961  -0.27788   0.72449 
 C                    -0.03029   0.68037  -0.02422 
 O                    -1.06897   0.86224   0.83575 
 C                    -2.23671   0.16704   0.3632 
 C                    -2.34279  -1.18774   1.0326 
 O                    -1.14162  -1.91213   0.80815 
 C                    -2.0653    0.17398  -1.15744 
 O                    -2.38627   1.42418  -1.69778 
 C                    -0.54186   0.03391  -1.3329 
 O                    -0.04448   0.63974  -2.46136 
 C                     2.09501  -0.73541  -0.17187 
 O                     1.89606  -1.64786  -0.90939 
 N                     3.22008   0.0096   -0.05625 
 H                     2.88222   1.39019   3.03315 
 H                     0.59137   0.38128   2.71897 
 H                     0.36068  -1.11005   0.89648 
 H                     0.5423    1.60503  -0.19053 
 H                    -3.10626   0.77469   0.65285 
 H                    -2.51277  -1.04247   2.11319 
 H                    -3.21005  -1.72832   0.61847 
 H                    -1.25524  -2.84303   1.03435 
 H                    -2.60676  -0.65062  -1.64883 
 H                    -3.30132   1.44879  -1.99704 
 H                    -0.27268  -1.03103  -1.34904 
 H                    -0.65314   1.36768  -2.67133 
 H                     3.95596  -0.19019  -0.73462 
 
                          Input orientation:                          
 ---------------------------------------------------------------------
 Center     Atomic      Atomic             Coordinates (Angstroms)
 Number     Number       Type             X           Y           Z
 ---------------------------------------------------------------------
      1          8           0        4.666031    1.360448    1.061214
      2          6           0        3.600661    0.818638    1.037647
      3          6           0        2.592290    0.879298    2.114139
      4          6           0        1.384349    0.339622    1.971974
      5          7           0        0.989607   -0.277876    0.724489
      6          6           0       -0.030287    0.680370   -0.024218
      7          8           0       -1.068967    0.862235    0.835751
      8          6           0       -2.236711    0.167043    0.363197
      9          6           0       -2.342786   -1.187739    1.032599
     10          8           0       -1.141622   -1.912127    0.808150
     11          6           0       -2.065296    0.173980   -1.157443
     12          8           0       -2.386268    1.424184   -1.697777
     13          6           0       -0.541860    0.033906   -1.332899
     14          8           0       -0.044483    0.639741   -2.461363
     15          6           0        2.095007   -0.735410   -0.171871
     16          8           0        1.896056   -1.647856   -0.909393
     17          7           0        3.220075    0.009597   -0.056254
     18          1           0        2.882218    1.390186    3.033147
     19          1           0        0.591370    0.381280    2.718973
     20          1           0        0.360676   -1.110050    0.896476
     21          1           0        0.542302    1.605026   -0.190526
     22          1           0       -3.106260    0.774688    0.652846
     23          1           0       -2.512774   -1.042472    2.113188
     24          1           0       -3.210051   -1.728316    0.618473
     25          1           0       -1.255240   -2.843034    1.034349
     26          1           0       -2.606762   -0.650615   -1.648831
     27          1           0       -3.301321    1.448788   -1.997038
     28          1           0       -0.272680   -1.031026   -1.349042
     29          1           0       -0.653137    1.367683   -2.671334
     30          1           0        3.955964   -0.190189   -0.734623
 ---------------------------------------------------------------------
                    Distance matrix (angstroms):
                    1          2          3          4          5
     1  O    0.000000
     2  C    1.195461   0.000000
     3  C    2.374986   1.476254   0.000000
     4  C    3.555419   2.452440   1.330632   0.000000
     5  N    4.039008   2.849213   2.416355   1.446839   0.000000
     6  C    4.867861   3.785559   3.389698   2.470240   1.587130
     7  O    5.761011   4.674194   3.878063   2.753704   2.355835
     8  C    7.039836   5.912222   5.185784   3.966109   3.276830
     9  C    7.457720   6.272969   5.458695   4.136036   3.468087
    10  O    6.671029   5.477134   4.841463   3.578462   2.686989
    11  C    7.186161   6.110407   5.735314   4.660551   3.616390
    12  O    7.573045   6.610034   6.293937   5.372234   4.490091
    13  C    5.883334   4.836918   4.734940   3.837438   2.583688
    14  O    5.925952   5.055902   5.286320   4.667559   3.472897
    15  C    3.538825   2.478910   2.842607   2.501360   1.494894
    16  O    4.539377   3.574946   4.001624   3.537540   2.316909
    17  N    2.272514   1.412803   2.420971   2.755452   2.380586
    18  H    2.659209   2.196554   1.090706   2.115038   3.419694
    19  H    4.506639   3.474762   2.148843   1.090210   2.138000
    20  H    4.966546   3.773231   3.228050   2.075127   1.057188
    21  H    4.316458   3.388270   3.168693   2.643236   2.140713
    22  H    7.805023   6.718094   5.883859   4.700527   4.229557
    23  H    7.643030   6.480325   5.454803   4.137353   3.844446
    24  H    8.471668   7.283439   6.534817   5.216977   4.444338
    25  H    7.261641   6.081745   5.461244   4.239796   3.422775
    26  H    8.017620   6.921558   6.597781   5.479030   4.324980
    27  H    8.534601   7.565960   7.208380   6.240097   5.366576
    28  H    5.993275   4.911243   4.883750   3.956459   2.541679
    29  H    6.498116   5.670343   5.802764   5.173835   4.115591
    30  H    2.476631   2.070003   3.334495   3.770885   3.306958
                    6          7          8          9         10
     6  C    0.000000
     7  O    1.360690   0.000000
     8  C    2.298239   1.438828   0.000000
     9  C    3.155051   2.421520   1.514855   0.000000
    10  O    2.940908   2.775450   2.391684   1.420532   0.000000
    11  C    2.383672   2.332207   1.530287   2.593755   3.011407
    12  O    2.984075   2.910298   2.418757   3.778754   4.354284
    13  C    1.546696   2.380549   2.401455   3.214239   2.954801
    14  O    2.437525   3.459773   3.606584   4.563951   4.290158
    15  C    2.557950   3.684902   4.456961   4.620536   3.580624
    16  O    3.148804   4.258808   4.689681   4.685170   3.499612
    17  N    3.319008   4.463020   5.475148   5.793500   4.844029
    18  H    4.281823   4.551829   5.901538   6.160240   5.661022
    19  H    2.828606   2.556279   3.686953   3.730275   3.451698
    20  H    2.050886   2.436693   2.943089   2.708001   1.705294
    21  H    1.100230   2.049676   3.177628   4.197535   4.025335
    22  H    3.151019   2.047360   1.099657   2.139679   3.332101
    23  H    3.701274   2.710043   2.145135   1.103481   2.083142
    24  H    4.040510   3.367849   2.145913   1.102666   2.085225
    25  H    3.877557   3.715260   3.236401   1.980596   0.964709
    26  H    3.324020   3.290392   2.203125   2.747408   3.126468
    27  H    3.896428   3.654058   2.889113   4.129015   4.881509
    28  H    2.177795   2.998638   2.867848   3.159448   2.486941
    29  H    2.804918   3.567638   3.627344   4.806684   4.806514
    30  H    4.141587   5.368762   6.299369   6.617585   5.597375
                   11         12         13         14         15
    11  C    0.000000
    12  O    1.399283   0.000000
    13  C    1.539891   2.338343   0.000000
    14  O    2.449658   2.585028   1.373991   0.000000
    15  C    4.371094   5.203274   2.982097   3.422022   0.000000
    16  O    4.367256   5.328910   2.991841   3.377485   1.189991
    17  N    5.401369   6.010552   3.972728   4.103531   1.354319
    18  H    6.596825   7.080942   5.711932   6.270438   3.925557
    19  H    4.703982   5.427859   4.221676   5.225609   3.444546
    20  H    3.428215   4.549527   2.663329   3.808019   2.071141
    21  H    3.127681   3.298641   2.224599   2.536295   2.808715
    22  H    2.172925   2.542767   3.326874   4.369323   5.478479
    23  H    3.518099   4.541349   4.113223   5.463407   5.152420
    24  H    2.843074   3.997735   3.746001   5.011378   5.454736
    25  H    3.816087   5.191617   3.793357   5.080911   4.137777
    26  H    1.102091   2.087056   2.198227   2.981694   4.929019
    27  H    1.964132   0.963060   3.171371   3.387794   6.101009
    28  H    2.168461   3.258363   1.098544   2.020098   2.660651
    29  H    2.389767   1.988655   1.892816   0.971827   4.268795
    30  H    6.047063   6.614966   4.542970   4.435537   2.019187
                   16         17         18         19         20
    16  O    0.000000
    17  N    2.286487   0.000000
    18  H    5.074036   3.400672   0.000000
    19  H    4.357136   3.840589   2.522812   0.000000
    20  H    2.430595   3.215193   4.144239   2.366174   0.000000
    21  H    3.595923   3.119918   3.989164   3.156762   2.930222
    22  H    5.773428   6.411763   6.473526   4.253953   3.953636
    23  H    5.379616   6.219235   5.989164   3.468394   3.121165
    24  H    5.330401   6.694932   7.257510   4.828385   3.634505
    25  H    3.890662   5.418059   6.247712   4.079721   2.373484
    26  H    4.670827   6.076530   7.497646   5.510950   3.936414
    27  H    6.146943   6.954604   7.971346   6.207526   5.322621
    28  H    2.297213   3.866980   5.917705   4.392031   2.334467
    29  H    4.323921   4.866704   6.711210   5.619359   4.460521
    30  H    2.529537   1.020604   4.224524   4.855347   4.053730
                   21         22         23         24         25
    21  H    0.000000
    22  H    3.835719   0.000000
    23  H    4.652938   2.405597   0.000000
    24  H    5.083877   2.505391   1.786267   0.000000
    25  H    4.951436   4.081634   2.446898   2.288413   0.000000
    26  H    4.138982   2.752945   3.783540   2.581872   3.719243
    27  H    4.249863   2.741231   4.870538   4.116214   5.638749
    28  H    2.992512   3.911181   4.123735   3.603537   3.151087
    29  H    2.764021   4.173683   5.670868   5.190939   5.641343
    30  H    3.895116   7.261616   7.119058   7.453085   6.109296
                   26         27         28         29         30
    26  H    0.000000
    27  H    2.238561   0.000000
    28  H    2.383805   3.967624   0.000000
    29  H    2.989262   2.733886   2.765322   0.000000
    30  H    6.642074   7.546398   4.354991   5.236566   0.000000
 Stoichiometry    C9H13N2O6(1+)
 Framework group  C1[X(C9H13N2O6)]
 Deg. of freedom    84
 Full point group                 C1      NOp   1
 Largest Abelian subgroup         C1      NOp   1
 Largest concise Abelian subgroup C1      NOp   1
                         Standard orientation:                         
 ---------------------------------------------------------------------
 Center     Atomic      Atomic             Coordinates (Angstroms)
 Number     Number       Type             X           Y           Z
 ---------------------------------------------------------------------
      1          8           0       -4.469778    0.462244   -0.809667
      2          6           0       -3.392628    0.070815   -0.469580
      3          6           0       -2.702371   -1.109322   -1.026489
      4          6           0       -1.457716   -1.421982   -0.674837
      5          7           0       -0.706545   -0.575733    0.226801
      6          6           0        0.387644    0.218674   -0.604251
      7          8           0        1.152465   -0.728384   -1.212205
      8          6           0        2.456004   -0.783217   -0.605571
      9          6           0        2.499503   -1.881374    0.436996
     10          8           0        1.460578   -1.666514    1.381654
     11          6           0        2.679918    0.647453   -0.110773
     12          8           0        3.023324    1.500415   -1.165535
     13          6           0        1.269416    1.086040    0.324416
     14          8           0        1.029066    2.432141    0.189897
     15          6           0       -1.503337    0.324719    1.115066
     16          8           0       -1.046801    0.645382    2.166174
     17          7           0       -2.678484    0.714098    0.565890
     18          1           0       -3.259571   -1.713804   -1.743267
     19          1           0       -0.888893   -2.260998   -1.076149
     20          1           0       -0.075615   -1.151970    0.849316
     21          1           0       -0.198185    0.809258   -1.324335
     22          1           0        3.168594   -1.026695   -1.406932
     23          1           0        2.374274   -2.857020   -0.063108
     24          1           0        3.485825   -1.872580    0.929910
     25          1           0        1.589580   -2.215867    2.164107
     26          1           0        3.395934    0.699611    0.725412
     27          1           0        3.979167    1.586958   -1.245275
     28          1           0        1.103020    0.794564    1.370433
     29          1           0        1.608382    2.742802   -0.525875
     30          1           0       -3.196739    1.424071    1.084524
 ---------------------------------------------------------------------
 Rotational constants (GHZ):           0.8545427           0.3337474           0.3089647
 Standard basis: def2SVP (5D, 7F)
 There are   320 symmetry adapted cartesian basis functions of A   symmetry.
 There are   303 symmetry adapted basis functions of A   symmetry.
   303 basis functions,   516 primitive gaussians,   320 cartesian basis functions
    64 alpha electrons       64 beta electrons
       nuclear repulsion energy      1377.1044829115 Hartrees.
 NAtoms=   30 NActive=   30 NUniq=   30 SFac= 1.00D+00 NAtFMM=   60 NAOKFM=F Big=F
 Integral buffers will be    131072 words long.
 Raffenetti 2 integral format.
 Two-electron integral symmetry is turned on.
 One-electron integrals computed using PRISM.
   1 Symmetry operations used in ECPInt.
 ECPInt:  NShTT=   10011 NPrTT=   36575 LenC2=    9515 LenP2D=   25300.
 LDataN:  DoStor=T MaxTD1= 4 Len=   56
 NBasis=   303 RedAO= T EigKep=  5.15D-04  NBF=   303
 NBsUse=   303 1.00D-06 EigRej= -1.00D+00 NBFU=   303
 ExpMin= 1.22D-01 ExpMax= 2.27D+03 ExpMxC= 3.41D+02 IAcc=3 IRadAn=         5 AccDes= 0.00D+00
 Harris functional with IExCor= 1009 and IRadAn=       5 diagonalized for initial guess.
 HarFok:  IExCor= 1009 AccDes= 0.00D+00 IRadAn=         5 IDoV= 1 UseB2=F ITyADJ=14
 ICtDFT=  3500011 ScaDFX=  1.000000  1.000000  1.000000  1.000000
 FoFCou: FMM=F IPFlag=           0 FMFlag=      100000 FMFlg1=           0
         NFxFlg=           0 DoJE=T BraDBF=F KetDBF=T FulRan=T
         wScrn=  0.000000 ICntrl=       500 IOpCl=  0 I1Cent=   200000004 NGrid=           0
         NMat0=    1 NMatS0=      1 NMatT0=    0 NMatD0=    1 NMtDS0=    0 NMtDT0=    0
 Petite list used in FoFCou.
 Requested convergence on RMS density matrix=1.00D-08 within 128 cycles.
 Requested convergence on MAX density matrix=1.00D-06.
 Requested convergence on             energy=1.00D-06.
 No special actions if energy rises.
 Integral accuracy reduced to 1.0D-05 until final iterations.
 Initial convergence to 1.0D-05 achieved.  Increase integral accuracy.
 SCF Done:  E(RPBE1PBE) =  -909.713676565     A.U. after   15 cycles
            NFock= 15  Conv=0.45D-08     -V/T= 2.0081

 **********************************************************************

            Population analysis using the SCF Density.

 **********************************************************************

 Orbital symmetries:
       Occupied  (A) (A) (A) (A) (A) (A) (A) (A) (A) (A) (A) (A)
                 (A) (A) (A) (A) (A) (A) (A) (A) (A) (A) (A) (A)
                 (A) (A) (A) (A) (A) (A) (A) (A) (A) (A) (A) (A)
                 (A) (A) (A) (A) (A) (A) (A) (A) (A) (A) (A) (A)
                 (A) (A) (A) (A) (A) (A) (A) (A) (A) (A) (A) (A)
                 (A) (A) (A) (A)
       Virtual   (A) (A) (A) (A) (A) (A) (A) (A) (A) (A) (A) (A)
                 (A) (A) (A) (A) (A) (A) (A) (A) (A) (A) (A) (A)
                 (A) (A) (A) (A) (A) (A) (A) (A) (A) (A) (A) (A)
                 (A) (A) (A) (A) (A) (A) (A) (A) (A) (A) (A) (A)
                 (A) (A) (A) (A) (A) (A) (A) (A) (A) (A) (A) (A)
                 (A) (A) (A) (A) (A) (A) (A) (A) (A) (A) (A) (A)
                 (A) (A) (A) (A) (A) (A) (A) (A) (A) (A) (A) (A)
                 (A) (A) (A) (A) (A) (A) (A) (A) (A) (A) (A) (A)
                 (A) (A) (A) (A) (A) (A) (A) (A) (A) (A) (A) (A)
                 (A) (A) (A) (A) (A) (A) (A) (A) (A) (A) (A) (A)
                 (A) (A) (A) (A) (A) (A) (A) (A) (A) (A) (A) (A)
                 (A) (A) (A) (A) (A) (A) (A) (A) (A) (A) (A) (A)
                 (A) (A) (A) (A) (A) (A) (A) (A) (A) (A) (A) (A)
                 (A) (A) (A) (A) (A) (A) (A) (A) (A) (A) (A) (A)
                 (A) (A) (A) (A) (A) (A) (A) (A) (A) (A) (A) (A)
                 (A) (A) (A) (A) (A) (A) (A) (A) (A) (A) (A) (A)
                 (A) (A) (A) (A) (A) (A) (A) (A) (A) (A) (A) (A)
                 (A) (A) (A) (A) (A) (A) (A) (A) (A) (A) (A) (A)
                 (A) (A) (A) (A) (A) (A) (A) (A) (A) (A) (A) (A)
                 (A) (A) (A) (A) (A) (A) (A) (A) (A) (A) (A)
 The electronic state is 1-A.
 Alpha  occ. eigenvalues --  -19.40322 -19.40195 -19.37974 -19.36835 -19.35338
 Alpha  occ. eigenvalues --  -19.34123 -14.67352 -14.61033 -10.56020 -10.51155
 Alpha  occ. eigenvalues --  -10.50217 -10.46906 -10.44808 -10.44629 -10.44167
 Alpha  occ. eigenvalues --  -10.43555 -10.42336  -1.28981  -1.27114  -1.23651
 Alpha  occ. eigenvalues --   -1.22277  -1.21083  -1.18212  -1.17510  -1.12311
 Alpha  occ. eigenvalues --   -0.98714  -0.96238  -0.93087  -0.86835  -0.86154
 Alpha  occ. eigenvalues --   -0.84839  -0.79303  -0.77695  -0.77464  -0.74333
 Alpha  occ. eigenvalues --   -0.72274  -0.71934  -0.71316  -0.69410  -0.68285
 Alpha  occ. eigenvalues --   -0.65593  -0.65045  -0.63850  -0.63264  -0.62923
 Alpha  occ. eigenvalues --   -0.61789  -0.60570  -0.60275  -0.59468  -0.58016
 Alpha  occ. eigenvalues --   -0.57546  -0.56720  -0.54470  -0.53890  -0.51272
 Alpha  occ. eigenvalues --   -0.49444  -0.48240  -0.47712  -0.47656  -0.46445
 Alpha  occ. eigenvalues --   -0.45966  -0.44533  -0.44076  -0.42214
 Alpha virt. eigenvalues --   -0.21965  -0.16648  -0.10058  -0.09238  -0.06994
 Alpha virt. eigenvalues --   -0.05945  -0.05439  -0.04930  -0.04076  -0.03385
 Alpha virt. eigenvalues --   -0.02800  -0.01365  -0.00985  -0.00609   0.00080
 Alpha virt. eigenvalues --    0.00782   0.01865   0.03107   0.03861   0.04662
 Alpha virt. eigenvalues --    0.04938   0.06432   0.07509   0.09036   0.09458
 Alpha virt. eigenvalues --    0.10188   0.10942   0.14017   0.14977   0.17304
 Alpha virt. eigenvalues --    0.17845   0.19173   0.21511   0.24640   0.26044
 Alpha virt. eigenvalues --    0.27063   0.28797   0.30704   0.32397   0.34068
 Alpha virt. eigenvalues --    0.34816   0.34938   0.36247   0.36923   0.38379
 Alpha virt. eigenvalues --    0.39143   0.40341   0.41377   0.41684   0.42583
 Alpha virt. eigenvalues --    0.44757   0.45313   0.46291   0.46517   0.47326
 Alpha virt. eigenvalues --    0.48188   0.48557   0.49393   0.50526   0.51324
 Alpha virt. eigenvalues --    0.51990   0.52568   0.52816   0.54003   0.54152
 Alpha virt. eigenvalues --    0.55000   0.55684   0.56833   0.58172   0.59503
 Alpha virt. eigenvalues --    0.60517   0.60941   0.61944   0.63907   0.65177
 Alpha virt. eigenvalues --    0.66423   0.67305   0.68668   0.71277   0.72771
 Alpha virt. eigenvalues --    0.75118   0.77344   0.79631   0.81359   0.82829
 Alpha virt. eigenvalues --    0.84773   0.87453   0.89100   0.90566   0.92152
 Alpha virt. eigenvalues --    0.93269   0.94124   0.95324   0.97106   0.98498
 Alpha virt. eigenvalues --    0.99527   0.99576   1.01487   1.03126   1.05667
 Alpha virt. eigenvalues --    1.07968   1.08309   1.09176   1.11754   1.14011
 Alpha virt. eigenvalues --    1.15368   1.17436   1.18341   1.20746   1.22537
 Alpha virt. eigenvalues --    1.22703   1.24517   1.26210   1.27812   1.29140
 Alpha virt. eigenvalues --    1.30170   1.32880   1.34925   1.35979   1.36566
 Alpha virt. eigenvalues --    1.37378   1.39266   1.39909   1.42438   1.44539
 Alpha virt. eigenvalues --    1.46005   1.48091   1.48482   1.51543   1.51879
 Alpha virt. eigenvalues --    1.53274   1.55127   1.55861   1.57563   1.57688
 Alpha virt. eigenvalues --    1.59143   1.60420   1.61900   1.62730   1.63865
 Alpha virt. eigenvalues --    1.64244   1.66914   1.67609   1.70185   1.70558
 Alpha virt. eigenvalues --    1.71532   1.72486   1.73474   1.74295   1.74989
 Alpha virt. eigenvalues --    1.77094   1.78024   1.78843   1.80939   1.83980
 Alpha virt. eigenvalues --    1.85505   1.86408   1.87175   1.87657   1.89172
 Alpha virt. eigenvalues --    1.90094   1.91670   1.93033   1.93826   1.97600
 Alpha virt. eigenvalues --    1.98433   1.98901   1.99955   2.02727   2.03884
 Alpha virt. eigenvalues --    2.05398   2.06907   2.08689   2.10612   2.11697
 Alpha virt. eigenvalues --    2.13859   2.15715   2.18217   2.20057   2.20735
 Alpha virt. eigenvalues --    2.23879   2.26422   2.26988   2.29263   2.30791
 Alpha virt. eigenvalues --    2.32225   2.36405   2.37782   2.40455   2.41625
 Alpha virt. eigenvalues --    2.43973   2.47818   2.49149   2.51587   2.53163
 Alpha virt. eigenvalues --    2.55640   2.57315   2.59558   2.60434   2.62134
 Alpha virt. eigenvalues --    2.63078   2.66405   2.70769   2.71147   2.73524
 Alpha virt. eigenvalues --    2.75111   2.76629   2.78593   2.79856   2.81074
 Alpha virt. eigenvalues --    2.82423   2.85364   2.87473   2.89279   2.90331
 Alpha virt. eigenvalues --    2.92956   2.94158   2.96111   2.97901   2.99396
 Alpha virt. eigenvalues --    3.02512   3.03622   3.05734   3.07908   3.09382
 Alpha virt. eigenvalues --    3.16315   3.19407   3.21113   3.27744   3.29843
 Alpha virt. eigenvalues --    3.30996   3.32368   3.42080   3.44757   3.52844
 Alpha virt. eigenvalues --    3.58305   3.62975   3.64918   3.68381
          Condensed to atoms (all electrons):
               1          2          3          4          5          6
     1  O    7.543515   0.759024  -0.085582   0.005200  -0.000086   0.000020
     2  C    0.759024   4.567191   0.231341   0.005019  -0.021973  -0.000212
     3  C   -0.085582   0.231341   5.235925   0.440380  -0.019834  -0.003106
     4  C    0.005200   0.005019   0.440380   4.933732   0.225315  -0.049734
     5  N   -0.000086  -0.021973  -0.019834   0.225315   6.927727   0.091521
     6  C    0.000020  -0.000212  -0.003106  -0.049734   0.091521   5.316362
     7  O   -0.000000  -0.000107   0.001874  -0.003760  -0.061337   0.333156
     8  C   -0.000000   0.000011  -0.000115   0.000734   0.003548  -0.136115
     9  C    0.000000   0.000002  -0.000021   0.000432   0.007432  -0.008968
    10  O   -0.000000  -0.000008   0.000121  -0.000615  -0.041404   0.007008
    11  C    0.000000   0.000002  -0.000014  -0.000353   0.004079  -0.028715
    12  O   -0.000000   0.000000  -0.000000  -0.000002   0.000032   0.008738
    13  C    0.000000  -0.000168  -0.000017   0.006320  -0.017208   0.037222
    14  O   -0.000000  -0.000020  -0.000002  -0.000181   0.002007  -0.071419
    15  C    0.000828  -0.018837   0.001939  -0.043443   0.206434  -0.043309
    16  O   -0.000009   0.000402  -0.000126   0.001834  -0.084688  -0.008610
    17  N   -0.096600   0.249610  -0.153551   0.014452  -0.116855   0.000326
    18  H    0.002886  -0.021467   0.417410  -0.040643   0.003896   0.000061
    19  H   -0.000072   0.005278  -0.009976   0.407131  -0.035163  -0.003636
    20  H    0.000006  -0.000207   0.003721  -0.014528   0.263606  -0.004531
    21  H   -0.000087   0.001101   0.000528   0.002695  -0.038435   0.357610
    22  H   -0.000000  -0.000000   0.000006  -0.000104  -0.000288   0.005981
    23  H   -0.000000  -0.000000  -0.000011  -0.000012  -0.000087   0.000215
    24  H   -0.000000  -0.000000   0.000002  -0.000010  -0.000369   0.000590
    25  H    0.000000   0.000002  -0.000013   0.000095   0.001463  -0.000796
    26  H   -0.000000   0.000000  -0.000001   0.000011   0.000005   0.012829
    27  H    0.000000  -0.000000   0.000000  -0.000001   0.000005  -0.001453
    28  H    0.000000  -0.000016  -0.000071   0.000151  -0.007070  -0.030506
    29  H   -0.000000   0.000003  -0.000004   0.000035  -0.000219   0.001330
    30  H    0.005609   0.003183   0.011385  -0.001343   0.004875   0.000103
               7          8          9         10         11         12
     1  O   -0.000000  -0.000000   0.000000  -0.000000   0.000000  -0.000000
     2  C   -0.000107   0.000011   0.000002  -0.000008   0.000002   0.000000
     3  C    0.001874  -0.000115  -0.000021   0.000121  -0.000014  -0.000000
     4  C   -0.003760   0.000734   0.000432  -0.000615  -0.000353  -0.000002
     5  N   -0.061337   0.003548   0.007432  -0.041404   0.004079   0.000032
     6  C    0.333156  -0.136115  -0.008968   0.007008  -0.028715   0.008738
     7  O    7.978083   0.239245  -0.039374  -0.001172  -0.039667  -0.000799
     8  C    0.239245   5.233272   0.262051  -0.067461   0.230079  -0.058605
     9  C   -0.039374   0.262051   4.584827   0.283559  -0.051184   0.006225
    10  O   -0.001172  -0.067461   0.283559   7.797425   0.003292  -0.000003
    11  C   -0.039667   0.230079  -0.051184   0.003292   5.009874   0.291559
    12  O   -0.000799  -0.058605   0.006225  -0.000003   0.291559   7.794391
    13  C   -0.035538  -0.064218   0.006270  -0.004113   0.220984  -0.088040
    14  O    0.001822   0.004011   0.000051   0.000062  -0.035357  -0.011263
    15  C    0.002077   0.000172   0.000228  -0.001507   0.000209  -0.000006
    16  O   -0.000009   0.000078  -0.000042  -0.000145   0.000115  -0.000000
    17  N   -0.000031   0.000011   0.000002  -0.000014  -0.000045  -0.000000
    18  H   -0.000004  -0.000002  -0.000000   0.000001  -0.000000   0.000000
    19  H    0.010129  -0.000350  -0.000017   0.000888   0.000058  -0.000001
    20  H    0.003027  -0.001825  -0.008463   0.091409  -0.002574  -0.000005
    21  H   -0.017348   0.006261  -0.000600   0.000026  -0.003872   0.000515
    22  H   -0.015997   0.335441  -0.008721   0.002756   0.002229   0.003683
    23  H   -0.001374  -0.015788   0.383867  -0.028727   0.009023  -0.000190
    24  H    0.003789  -0.010638   0.382880  -0.019529  -0.009632   0.000089
    25  H   -0.000198   0.007345  -0.012224   0.325039   0.000423   0.000004
    26  H    0.003354  -0.051386   0.008886  -0.000721   0.404108  -0.021280
    27  H   -0.000207   0.002689  -0.000246   0.000004  -0.024870   0.334694
    28  H    0.002021  -0.002217   0.000858   0.015892  -0.017191   0.002792
    29  H   -0.000082   0.003638  -0.000112   0.000000  -0.031163   0.043408
    30  H    0.000004  -0.000001  -0.000000   0.000001   0.000000   0.000000
              13         14         15         16         17         18
     1  O    0.000000  -0.000000   0.000828  -0.000009  -0.096600   0.002886
     2  C   -0.000168  -0.000020  -0.018837   0.000402   0.249610  -0.021467
     3  C   -0.000017  -0.000002   0.001939  -0.000126  -0.153551   0.417410
     4  C    0.006320  -0.000181  -0.043443   0.001834   0.014452  -0.040643
     5  N   -0.017208   0.002007   0.206434  -0.084688  -0.116855   0.003896
     6  C    0.037222  -0.071419  -0.043309  -0.008610   0.000326   0.000061
     7  O   -0.035538   0.001822   0.002077  -0.000009  -0.000031  -0.000004
     8  C   -0.064218   0.004011   0.000172   0.000078   0.000011  -0.000002
     9  C    0.006270   0.000051   0.000228  -0.000042   0.000002  -0.000000
    10  O   -0.004113   0.000062  -0.001507  -0.000145  -0.000014   0.000001
    11  C    0.220984  -0.035357   0.000209   0.000115  -0.000045  -0.000000
    12  O   -0.088040  -0.011263  -0.000006  -0.000000  -0.000000   0.000000
    13  C    5.146360   0.355359   0.006702  -0.002118  -0.002939   0.000010
    14  O    0.355359   7.690613   0.004504  -0.000692  -0.000208  -0.000000
    15  C    0.006702   0.004504   4.546001   0.738091   0.307042   0.000502
    16  O   -0.002118  -0.000692   0.738091   7.555548  -0.081393   0.000007
    17  N   -0.002939  -0.000208   0.307042  -0.081393   6.733562   0.005490
    18  H    0.000010  -0.000000   0.000502   0.000007   0.005490   0.530690
    19  H    0.000335  -0.000006   0.002067  -0.000097  -0.000593  -0.007919
    20  H   -0.008669  -0.000040  -0.001835   0.004544   0.002123  -0.000016
    21  H    0.003575   0.008684   0.003643  -0.000248   0.002154  -0.000065
    22  H    0.007461  -0.000125   0.000009   0.000000  -0.000000   0.000000
    23  H   -0.001039   0.000005   0.000012  -0.000002   0.000000   0.000000
    24  H    0.000068  -0.000010  -0.000023   0.000002  -0.000000   0.000000
    25  H    0.000162  -0.000002   0.000249   0.000068   0.000005  -0.000000
    26  H   -0.024460   0.001065  -0.000025  -0.000008   0.000000   0.000000
    27  H    0.011603   0.000198   0.000002   0.000000  -0.000000  -0.000000
    28  H    0.369959  -0.017088   0.002409   0.016636   0.001175   0.000000
    29  H   -0.042981   0.343157  -0.000235  -0.000030   0.000016   0.000000
    30  H   -0.000069   0.000013  -0.005036   0.000429   0.327182  -0.000192
              19         20         21         22         23         24
     1  O   -0.000072   0.000006  -0.000087  -0.000000  -0.000000  -0.000000
     2  C    0.005278  -0.000207   0.001101  -0.000000  -0.000000  -0.000000
     3  C   -0.009976   0.003721   0.000528   0.000006  -0.000011   0.000002
     4  C    0.407131  -0.014528   0.002695  -0.000104  -0.000012  -0.000010
     5  N   -0.035163   0.263606  -0.038435  -0.000288  -0.000087  -0.000369
     6  C   -0.003636  -0.004531   0.357610   0.005981   0.000215   0.000590
     7  O    0.010129   0.003027  -0.017348  -0.015997  -0.001374   0.003789
     8  C   -0.000350  -0.001825   0.006261   0.335441  -0.015788  -0.010638
     9  C   -0.000017  -0.008463  -0.000600  -0.008721   0.383867   0.382880
    10  O    0.000888   0.091409   0.000026   0.002756  -0.028727  -0.019529
    11  C    0.000058  -0.002574  -0.003872   0.002229   0.009023  -0.009632
    12  O   -0.000001  -0.000005   0.000515   0.003683  -0.000190   0.000089
    13  C    0.000335  -0.008669   0.003575   0.007461  -0.001039   0.000068
    14  O   -0.000006  -0.000040   0.008684  -0.000125   0.000005  -0.000010
    15  C    0.002067  -0.001835   0.003643   0.000009   0.000012  -0.000023
    16  O   -0.000097   0.004544  -0.000248   0.000000  -0.000002   0.000002
    17  N   -0.000593   0.002123   0.002154  -0.000000   0.000000  -0.000000
    18  H   -0.007919  -0.000016  -0.000065   0.000000   0.000000   0.000000
    19  H    0.522787  -0.003813  -0.000748  -0.000019   0.000351   0.000028
    20  H   -0.003813   0.428094   0.005530  -0.000013  -0.001720   0.002201
    21  H   -0.000748   0.005530   0.572650   0.000199  -0.000039   0.000035
    22  H   -0.000019  -0.000013   0.000199   0.587229  -0.007189   0.000851
    23  H    0.000351  -0.001720  -0.000039  -0.007189   0.613914  -0.028508
    24  H    0.000028   0.002201   0.000035   0.000851  -0.028508   0.607952
    25  H   -0.000075  -0.003756  -0.000002  -0.000276  -0.001120  -0.008445
    26  H   -0.000004  -0.000044  -0.000276   0.001800  -0.000081   0.001997
    27  H    0.000000   0.000003   0.000038   0.002093  -0.000007   0.000031
    28  H   -0.000082  -0.000065   0.004050  -0.000232   0.000367  -0.000404
    29  H    0.000000  -0.000021   0.001464  -0.000193   0.000007  -0.000004
    30  H    0.000050  -0.000017  -0.000009   0.000000   0.000000   0.000000
              25         26         27         28         29         30
     1  O    0.000000  -0.000000   0.000000   0.000000  -0.000000   0.005609
     2  C    0.000002   0.000000  -0.000000  -0.000016   0.000003   0.003183
     3  C   -0.000013  -0.000001   0.000000  -0.000071  -0.000004   0.011385
     4  C    0.000095   0.000011  -0.000001   0.000151   0.000035  -0.001343
     5  N    0.001463   0.000005   0.000005  -0.007070  -0.000219   0.004875
     6  C   -0.000796   0.012829  -0.001453  -0.030506   0.001330   0.000103
     7  O   -0.000198   0.003354  -0.000207   0.002021  -0.000082   0.000004
     8  C    0.007345  -0.051386   0.002689  -0.002217   0.003638  -0.000001
     9  C   -0.012224   0.008886  -0.000246   0.000858  -0.000112  -0.000000
    10  O    0.325039  -0.000721   0.000004   0.015892   0.000000   0.000001
    11  C    0.000423   0.404108  -0.024870  -0.017191  -0.031163   0.000000
    12  O    0.000004  -0.021280   0.334694   0.002792   0.043408   0.000000
    13  C    0.000162  -0.024460   0.011603   0.369959  -0.042981  -0.000069
    14  O   -0.000002   0.001065   0.000198  -0.017088   0.343157   0.000013
    15  C    0.000249  -0.000025   0.000002   0.002409  -0.000235  -0.005036
    16  O    0.000068  -0.000008   0.000000   0.016636  -0.000030   0.000429
    17  N    0.000005   0.000000  -0.000000   0.001175   0.000016   0.327182
    18  H   -0.000000   0.000000  -0.000000   0.000000   0.000000  -0.000192
    19  H   -0.000075  -0.000004   0.000000  -0.000082   0.000000   0.000050
    20  H   -0.003756  -0.000044   0.000003  -0.000065  -0.000021  -0.000017
    21  H   -0.000002  -0.000276   0.000038   0.004050   0.001464  -0.000009
    22  H   -0.000276   0.001800   0.002093  -0.000232  -0.000193   0.000000
    23  H   -0.001120  -0.000081  -0.000007   0.000367   0.000007   0.000000
    24  H   -0.008445   0.001997   0.000031  -0.000404  -0.000004   0.000000
    25  H    0.463032  -0.000140  -0.000001   0.000158  -0.000000  -0.000000
    26  H   -0.000140   0.606725  -0.009165  -0.008857   0.000443  -0.000000
    27  H   -0.000001  -0.009165   0.474931  -0.000246  -0.002188   0.000000
    28  H    0.000158  -0.008857  -0.000246   0.573098   0.007423   0.000023
    29  H   -0.000000   0.000443  -0.002188   0.007423   0.482201   0.000001
    30  H   -0.000000  -0.000000   0.000000   0.000023   0.000001   0.444149
 Mulliken charges:
               1
     1  O   -0.134654
     2  C    0.240847
     3  C   -0.072192
     4  C    0.111192
     5  N   -0.296930
     6  C    0.218040
     7  O   -0.361578
     8  C    0.080138
     9  C    0.202399
    10  O   -0.362064
    11  C    0.068603
    12  O   -0.305935
    13  C    0.119188
    14  O   -0.275137
    15  C    0.291139
    16  O   -0.139536
    17  N   -0.190921
    18  H    0.109354
    19  H    0.113467
    20  H    0.247880
    21  H    0.090971
    22  H    0.083422
    23  H    0.078131
    24  H    0.077059
    25  H    0.229004
    26  H    0.075225
    27  H    0.212092
    28  H    0.087030
    29  H    0.194108
    30  H    0.209659
 Sum of Mulliken charges =   1.00000
 Mulliken charges with hydrogens summed into heavy atoms:
               1
     1  O   -0.134654
     2  C    0.240847
     3  C    0.037162
     4  C    0.224659
     5  N   -0.049050
     6  C    0.309011
     7  O   -0.361578
     8  C    0.163560
     9  C    0.357589
    10  O   -0.133060
    11  C    0.143828
    12  O   -0.093843
    13  C    0.206218
    14  O   -0.081029
    15  C    0.291139
    16  O   -0.139536
    17  N    0.018738
 Electronic spatial extent (au):  <R**2>=           3768.4307
 Charge=              1.0000 electrons
 Dipole moment (field-independent basis, Debye):
    X=              4.8703    Y=             -4.9241    Z=              0.4277  Tot=              6.9390
 Quadrupole moment (field-independent basis, Debye-Ang):
   XX=            -59.3805   YY=            -80.0648   ZZ=            -91.7055
   XY=             -0.0039   XZ=             -1.2455   YZ=             -5.3395
 Traceless Quadrupole moment (field-independent basis, Debye-Ang):
   XX=             17.6697   YY=             -3.0145   ZZ=            -14.6552
   XY=             -0.0039   XZ=             -1.2455   YZ=             -5.3395
 Octapole moment (field-independent basis, Debye-Ang**2):
  XXX=            156.7648  YYY=            -18.5387  ZZZ=              7.5170  XYY=             19.5885
  XXY=             -0.8297  XXZ=             11.5627  XZZ=             10.9164  YZZ=            -15.8760
  YYZ=              1.8470  XYZ=            -30.0777
 Hexadecapole moment (field-independent basis, Debye-Ang**3):
 XXXX=          -2794.0970 YYYY=           -823.5738 ZZZZ=           -596.6156 XXXY=             98.8098
 XXXZ=           -173.1375 YYYX=            -20.1564 YYYZ=            -52.6603 ZZZX=             29.2877
 ZZZY=            -49.4229 XXYY=           -522.9039 XXZZ=           -542.9483 YYZZ=           -201.1461
 XXYZ=             10.2873 YYXZ=              7.2806 ZZXY=             -9.0676
 N-N= 1.377104482911D+03 E-N=-4.862848794998D+03  KE= 9.023781479676D+02
 Running external command "gaunbo7 R"
         input file       "/home/javialra/scratch/Gau-616463.EIn"
         output file      "/home/javialra/scratch/Gau-616463.EOu"
         message file     "/home/javialra/scratch/Gau-616463.EMs"
         fchk file        "/home/javialra/scratch/Gau-616463.EFC"
         mat. el file     "/home/javialra/scratch/Gau-616463.EUF"

 Writing WrtUnf unformatted file "/home/javialra/scratch/Gau-616463.EUF"
 Gaussian matrix elements                                         Version   2 NLab=11 Len12L=8 Len4L=8
 Write SHELL TO ATOM MAP                   from file      0 offset           0 length                 141 to matrix element file.
 Write SHELL TYPES                         from file      0 offset           0 length                 141 to matrix element file.
 Write NUMBER OF PRIMITIVES PER SHELL      from file      0 offset           0 length                 141 to matrix element file.
 Write PRIMITIVE EXPONENTS                 from file      0 offset           0 length                 269 to matrix element file.
 Write CONTRACTION COEFFICIENTS            from file      0 offset           0 length                 269 to matrix element file.
 Write P(S=P) CONTRACTION COEFFICIENTS     from file      0 offset           0 length                 269 to matrix element file.
 Write COORDINATES OF EACH SHELL           from file      0 offset           0 length                 423 to matrix element file.
 Write BONDS PER ATOM                      from file      0 offset           0 length                  30 to matrix element file.
 Write BONDED ATOMS                        from file      0 offset           0 length                  62 to matrix element file.
 Write BOND TYPES                          from file      0 offset           0 length                  62 to matrix element file.
 Write ONIOM CHARGE/MULT                   from file      0 offset           0 length                  32 to matrix element file.
 Write ONIOM ATOM LAYERS                   from file      0 offset           0 length                  30 to matrix element file.
 Write ONIOM ATOM MODIFIERS                from file      0 offset           0 length                  30 to matrix element file.
 Write ONIOM ATOM TYPES                    from file      0 offset           0 length                  30 to matrix element file.
 Write ONIOM LINK ATOMS                    from file      0 offset           0 length                  30 to matrix element file.
 Write ONIOM LINK CHARGES                  from file      0 offset           0 length                  30 to matrix element file.
 Write ONIOM LINK DISTANCES                from file      0 offset           0 length                 120 to matrix element file.
 Write SYMINF INTS                         from file      0 offset           0 length                  26 to matrix element file.
 Write ROTTR TO SO                         from file      0 offset           0 length                  12 to matrix element file.
 Write GAUSSIAN SCALARS                    from file    501 offset           0 to matrix element file.
 Write OPTIMIZATION FLAGS                  from file      0 offset           0 length                  30 to matrix element file.
 Write INTEGER ISO                         from file      0 offset           0 length                  30 to matrix element file.
 Write INTEGER SPIN                        from file      0 offset           0 length                  30 to matrix element file.
 Write REAL ZEFFECTIVE                     from file      0 offset           0 length                  30 to matrix element file.
 Write REAL QUADRUPOLEMOMENT               from file      0 offset           0 length                  30 to matrix element file.
 Write REAL GFACTOR                        from file      0 offset           0 length                  30 to matrix element file.
 Write REAL ZNUCLEAR                       from file      0 offset           0 length                  30 to matrix element file.
 Write MULLIKEN CHARGES                    from file      0 offset           0 length                  30 to matrix element file.
 Write NUCLEAR GRADIENT                    from file  10584 offset           0 length                  90 to matrix element file.
 Array NUCLEAR FORCE CONSTANTS              on  file  10585 does not exist.
 Write ELECTRIC DIPOLE MOMENT              from file      0 offset           0 length                   3 to matrix element file.
 Write NON-ADIABATIC COUPLING              from file  10810 offset           0 length                  90 to matrix element file.
 Write FINITE EM FIELD                     from file  10521 offset           0 length                  35 to matrix element file.
 Write OVERLAP                             from file  10514 offset           0 length               46056 to matrix element file.
 Write CORE HAMILTONIAN ALPHA              from file  10515 offset           0 length               46056 to matrix element file.
 Write CORE HAMILTONIAN BETA               from file  10515 offset       46056 length               46056 to matrix element file.
 Write KINETIC ENERGY                      from file  10516 offset           0 length               46056 to matrix element file.
 Write ORTHOGONAL BASIS                    from file  10685 offset           0 length               91809 to matrix element file.
 Write DIPOLE INTEGRALS                    from file  10518 offset           0 length              138168 to matrix element file.
 Array DIP VEL INTEGRALS                    on  file  10572 does not exist.
 Array R X DEL INTEGRALS                    on  file  10572 does not exist.
 Write ALPHA ORBITAL ENERGIES              from file      0 offset           0 length                 303 to matrix element file.
 Write ALPHA MO COEFFICIENTS               from file  10524 offset           0 length               91809 to matrix element file.
 Write ALPHA DENSITY MATRIX                from file      0 offset           0 length               46056 to matrix element file.
 Write ALPHA FOCK MATRIX                   from file  10536 offset           0 length               46056 to matrix element file.
 Write ENERGY-WEIGHTED DENSITY             from file  10571 offset           0 length               46056 to matrix element file.
 Write ALPHA SCF DENSITY MATRIX            from file      0 offset           0 length               46056 to matrix element file.
 No 2e integrals to process.
 Perform NBO analysis...executing G16NBO...

 *********************************** NBO 7.0 ***********************************
             N A T U R A L   A T O M I C   O R B I T A L   A N D
          N A T U R A L   B O N D   O R B I T A L   A N A L Y S I S
 *************************** Thijs Stuyver (I102501) ***************************
  (c) Copyright 1996-2021 Board of Regents of the University of Wisconsin System
      on behalf of the Theoretical Chemistry Institute.  All rights reserved.

          Cite this program [NBO 7.0.10 (8-Feb-2021)] as:

          NBO 7.0.  E. D. Glendening, J. K. Badenhoop, A. E. Reed,
          J. E. Carpenter, J. A. Bohmann, C. M. Morales, P. Karafiloglou,
          C. R. Landis, and F. Weinhold, Theoretical Chemistry Institute,
          University of Wisconsin, Madison, WI (2018)

 Filename set to /home/javialra/scratch/Gau-616463

 Job title: NBO input


 NATURAL POPULATIONS:  Natural atomic orbital occupancies

  NAO Atom No lang   Type(AO)    Occupancy      Energy
 -------------------------------------------------------
   1    O  1  s      Cor( 1s)     1.99995     -19.35070
   2    O  1  s      Val( 2s)     1.68742      -0.81167
   3    O  1  s      Ryd( 3s)     0.00139       1.45507
   4    O  1  px     Val( 2p)     1.55379      -0.43725
   5    O  1  px     Ryd( 3p)     0.00054       0.94232
   6    O  1  py     Val( 2p)     1.65333      -0.41299
   7    O  1  py     Ryd( 3p)     0.00169       1.04567
   8    O  1  pz     Val( 2p)     1.58544      -0.40939
   9    O  1  pz     Ryd( 3p)     0.00168       1.01252
  10    O  1  dxy    Ryd( 3d)     0.00247       2.84309
  11    O  1  dxz    Ryd( 3d)     0.00246       2.80381
  12    O  1  dyz    Ryd( 3d)     0.00054       2.57167
  13    O  1  dx2y2  Ryd( 3d)     0.00256       2.86679
  14    O  1  dz2    Ryd( 3d)     0.00115       2.66026

  15    C  2  s      Cor( 1s)     1.99995     -10.51068
  16    C  2  s      Val( 2s)     0.75462      -0.21670
  17    C  2  s      Ryd( 3s)     0.00460       0.36483
  18    C  2  px     Val( 2p)     0.79030      -0.14113
  19    C  2  px     Ryd( 3p)     0.01572       0.49686
  20    C  2  py     Val( 2p)     0.89213      -0.21249
  21    C  2  py     Ryd( 3p)     0.00619       0.49237
  22    C  2  pz     Val( 2p)     0.82071      -0.21218
  23    C  2  pz     Ryd( 3p)     0.00389       0.47288
  24    C  2  dxy    Ryd( 3d)     0.00365       2.13985
  25    C  2  dxz    Ryd( 3d)     0.00350       2.08591
  26    C  2  dyz    Ryd( 3d)     0.00133       2.00193
  27    C  2  dx2y2  Ryd( 3d)     0.00229       2.06459
  28    C  2  dz2    Ryd( 3d)     0.00208       1.88328

  29    C  3  s      Cor( 1s)     1.99995     -10.42225
  30    C  3  s      Val( 2s)     1.00249      -0.28251
  31    C  3  s      Ryd( 3s)     0.00290       0.41175
  32    C  3  px     Val( 2p)     1.10986      -0.21602
  33    C  3  px     Ryd( 3p)     0.00352       0.59905
  34    C  3  py     Val( 2p)     1.08189      -0.24374
  35    C  3  py     Ryd( 3p)     0.00310       0.60377
  36    C  3  pz     Val( 2p)     1.08220      -0.26656
  37    C  3  pz     Ryd( 3p)     0.00262       0.61289
  38    C  3  dxy    Ryd( 3d)     0.00073       2.12368
  39    C  3  dxz    Ryd( 3d)     0.00078       2.03805
  40    C  3  dyz    Ryd( 3d)     0.00070       1.99338
  41    C  3  dx2y2  Ryd( 3d)     0.00081       2.04847
  42    C  3  dz2    Ryd( 3d)     0.00062       1.84535

  43    C  4  s      Cor( 1s)     1.99994     -10.46803
  44    C  4  s      Val( 2s)     0.93815      -0.29565
  45    C  4  s      Ryd( 3s)     0.00217       0.49340
  46    C  4  px     Val( 2p)     1.05673      -0.21941
  47    C  4  px     Ryd( 3p)     0.00623       0.54516
  48    C  4  py     Val( 2p)     1.03809      -0.25827
  49    C  4  py     Ryd( 3p)     0.00459       0.65379
  50    C  4  pz     Val( 2p)     0.93307      -0.26692
  51    C  4  pz     Ryd( 3p)     0.00482       0.47164
  52    C  4  dxy    Ryd( 3d)     0.00119       2.16475
  53    C  4  dxz    Ryd( 3d)     0.00114       2.04000
  54    C  4  dyz    Ryd( 3d)     0.00100       1.98892
  55    C  4  dx2y2  Ryd( 3d)     0.00079       2.08067
  56    C  4  dz2    Ryd( 3d)     0.00043       1.89371

  57    N  5  s      Cor( 1s)     1.99994     -14.67277
  58    N  5  s      Val( 2s)     1.31719      -0.70621
  59    N  5  s      Ryd( 3s)     0.00139       1.15079
  60    N  5  px     Val( 2p)     1.44067      -0.49978
  61    N  5  px     Ryd( 3p)     0.00256       1.08225
  62    N  5  py     Val( 2p)     1.43653      -0.49638
  63    N  5  py     Ryd( 3p)     0.00177       0.97898
  64    N  5  pz     Val( 2p)     1.44061      -0.49810
  65    N  5  pz     Ryd( 3p)     0.00115       0.98888
  66    N  5  dxy    Ryd( 3d)     0.00105       2.49408
  67    N  5  dxz    Ryd( 3d)     0.00099       2.52685
  68    N  5  dyz    Ryd( 3d)     0.00102       2.54012
  69    N  5  dx2y2  Ryd( 3d)     0.00037       2.18135
  70    N  5  dz2    Ryd( 3d)     0.00056       2.15174

  71    C  6  s      Cor( 1s)     1.99994     -10.50112
  72    C  6  s      Val( 2s)     0.95276      -0.33755
  73    C  6  s      Ryd( 3s)     0.00523       0.77673
  74    C  6  px     Val( 2p)     0.87249      -0.24730
  75    C  6  px     Ryd( 3p)     0.00726       0.59740
  76    C  6  py     Val( 2p)     0.85622      -0.23349
  77    C  6  py     Ryd( 3p)     0.00802       0.59546
  78    C  6  pz     Val( 2p)     0.97016      -0.25253
  79    C  6  pz     Ryd( 3p)     0.00769       0.56948
  80    C  6  dxy    Ryd( 3d)     0.00200       2.16861
  81    C  6  dxz    Ryd( 3d)     0.00204       2.16696
  82    C  6  dyz    Ryd( 3d)     0.00175       2.19934
  83    C  6  dx2y2  Ryd( 3d)     0.00165       1.88448
  84    C  6  dz2    Ryd( 3d)     0.00122       1.89280

  85    O  7  s      Cor( 1s)     1.99995     -19.40264
  86    O  7  s      Val( 2s)     1.58934      -0.86900
  87    O  7  s      Ryd( 3s)     0.00067       1.53848
  88    O  7  px     Val( 2p)     1.46871      -0.47003
  89    O  7  px     Ryd( 3p)     0.00093       1.34094
  90    O  7  py     Val( 2p)     1.73247      -0.49328
  91    O  7  py     Ryd( 3p)     0.00189       1.14306
  92    O  7  pz     Val( 2p)     1.79165      -0.49930
  93    O  7  pz     Ryd( 3p)     0.00291       1.10274
  94    O  7  dxy    Ryd( 3d)     0.00078       2.79173
  95    O  7  dxz    Ryd( 3d)     0.00137       2.82356
  96    O  7  dyz    Ryd( 3d)     0.00145       2.72906
  97    O  7  dx2y2  Ryd( 3d)     0.00081       2.77658
  98    O  7  dz2    Ryd( 3d)     0.00131       2.63313

  99    C  8  s      Cor( 1s)     1.99994     -10.44684
 100    C  8  s      Val( 2s)     0.95791      -0.30690
 101    C  8  s      Ryd( 3s)     0.00253       0.76134
 102    C  8  px     Val( 2p)     0.82169      -0.21341
 103    C  8  px     Ryd( 3p)     0.00651       0.59295
 104    C  8  py     Val( 2p)     1.06646      -0.23552
 105    C  8  py     Ryd( 3p)     0.00322       0.49940
 106    C  8  pz     Val( 2p)     1.07782      -0.23639
 107    C  8  pz     Ryd( 3p)     0.00734       0.64656
 108    C  8  dxy    Ryd( 3d)     0.00108       1.87611
 109    C  8  dxz    Ryd( 3d)     0.00176       2.23405
 110    C  8  dyz    Ryd( 3d)     0.00126       2.09208
 111    C  8  dx2y2  Ryd( 3d)     0.00178       2.15895
 112    C  8  dz2    Ryd( 3d)     0.00090       1.94686

 113    C  9  s      Cor( 1s)     1.99994     -10.44499
 114    C  9  s      Val( 2s)     1.01484      -0.33351
 115    C  9  s      Ryd( 3s)     0.00277       0.65121
 116    C  9  px     Val( 2p)     0.96468      -0.22376
 117    C  9  px     Ryd( 3p)     0.00340       0.48080
 118    C  9  py     Val( 2p)     1.15220      -0.23973
 119    C  9  py     Ryd( 3p)     0.00276       0.47334
 120    C  9  pz     Val( 2p)     0.93732      -0.22449
 121    C  9  pz     Ryd( 3p)     0.00279       0.45038
 122    C  9  dxy    Ryd( 3d)     0.00059       1.89192
 123    C  9  dxz    Ryd( 3d)     0.00177       2.13904
 124    C  9  dyz    Ryd( 3d)     0.00142       2.15779
 125    C  9  dx2y2  Ryd( 3d)     0.00153       2.23555
 126    C  9  dz2    Ryd( 3d)     0.00081       1.92119

 127    O 10  s      Cor( 1s)     1.99996     -19.40141
 128    O 10  s      Val( 2s)     1.66332      -0.92470
 129    O 10  s      Ryd( 3s)     0.00167       1.35345
 130    O 10  px     Val( 2p)     1.72105      -0.49801
 131    O 10  px     Ryd( 3p)     0.00144       1.21743
 132    O 10  py     Val( 2p)     1.84547      -0.50012
 133    O 10  py     Ryd( 3p)     0.00163       1.07288
 134    O 10  pz     Val( 2p)     1.55178      -0.48041
 135    O 10  pz     Ryd( 3p)     0.00241       1.12336
 136    O 10  dxy    Ryd( 3d)     0.00073       2.61791
 137    O 10  dxz    Ryd( 3d)     0.00076       2.87130
 138    O 10  dyz    Ryd( 3d)     0.00115       2.93345
 139    O 10  dx2y2  Ryd( 3d)     0.00088       2.67555
 140    O 10  dz2    Ryd( 3d)     0.00037       2.74444

 141    C 11  s      Cor( 1s)     1.99994     -10.44048
 142    C 11  s      Val( 2s)     0.93220      -0.28836
 143    C 11  s      Ryd( 3s)     0.00292       0.77973
 144    C 11  px     Val( 2p)     1.10182      -0.23864
 145    C 11  px     Ryd( 3p)     0.00382       0.54317
 146    C 11  py     Val( 2p)     0.92508      -0.21297
 147    C 11  py     Ryd( 3p)     0.00616       0.48949
 148    C 11  pz     Val( 2p)     0.93744      -0.21101
 149    C 11  pz     Ryd( 3p)     0.00585       0.72476
 150    C 11  dxy    Ryd( 3d)     0.00082       1.92185
 151    C 11  dxz    Ryd( 3d)     0.00131       2.20847
 152    C 11  dyz    Ryd( 3d)     0.00169       2.06426
 153    C 11  dx2y2  Ryd( 3d)     0.00160       2.11020
 154    C 11  dz2    Ryd( 3d)     0.00184       1.98121

 155    O 12  s      Cor( 1s)     1.99995     -19.36776
 156    O 12  s      Val( 2s)     1.65992      -0.87931
 157    O 12  s      Ryd( 3s)     0.00165       1.45981
 158    O 12  px     Val( 2p)     1.58611      -0.44813
 159    O 12  px     Ryd( 3p)     0.00291       1.20770
 160    O 12  py     Val( 2p)     1.78697      -0.46244
 161    O 12  py     Ryd( 3p)     0.00251       1.02451
 162    O 12  pz     Val( 2p)     1.72191      -0.46003
 163    O 12  pz     Ryd( 3p)     0.00146       0.97906
 164    O 12  dxy    Ryd( 3d)     0.00054       2.69159
 165    O 12  dxz    Ryd( 3d)     0.00074       2.71530
 166    O 12  dyz    Ryd( 3d)     0.00113       2.85649
 167    O 12  dx2y2  Ryd( 3d)     0.00152       3.00979
 168    O 12  dz2    Ryd( 3d)     0.00113       2.79014

 169    C 13  s      Cor( 1s)     1.99994     -10.43440
 170    C 13  s      Val( 2s)     0.91889      -0.28438
 171    C 13  s      Ryd( 3s)     0.00357       0.77937
 172    C 13  px     Val( 2p)     1.02251      -0.22793
 173    C 13  px     Ryd( 3p)     0.00405       0.59162
 174    C 13  py     Val( 2p)     0.77999      -0.18576
 175    C 13  py     Ryd( 3p)     0.01002       0.59659
 176    C 13  pz     Val( 2p)     1.19236      -0.23985
 177    C 13  pz     Ryd( 3p)     0.00527       0.69563
 178    C 13  dxy    Ryd( 3d)     0.00230       1.96026
 179    C 13  dxz    Ryd( 3d)     0.00070       2.01448
 180    C 13  dyz    Ryd( 3d)     0.00234       2.01658
 181    C 13  dx2y2  Ryd( 3d)     0.00167       2.11238
 182    C 13  dz2    Ryd( 3d)     0.00104       2.25569

 183    O 14  s      Cor( 1s)     1.99995     -19.34045
 184    O 14  s      Val( 2s)     1.65004      -0.84221
 185    O 14  s      Ryd( 3s)     0.00047       1.55246
 186    O 14  px     Val( 2p)     1.81912      -0.43749
 187    O 14  px     Ryd( 3p)     0.00265       1.04950
 188    O 14  py     Val( 2p)     1.49692      -0.42241
 189    O 14  py     Ryd( 3p)     0.00214       1.03434
 190    O 14  pz     Val( 2p)     1.75704      -0.42956
 191    O 14  pz     Ryd( 3p)     0.00229       1.13033
 192    O 14  dxy    Ryd( 3d)     0.00100       2.76378
 193    O 14  dxz    Ryd( 3d)     0.00170       2.97809
 194    O 14  dyz    Ryd( 3d)     0.00087       2.79855
 195    O 14  dx2y2  Ryd( 3d)     0.00141       2.93502
 196    O 14  dz2    Ryd( 3d)     0.00105       2.77809

 197    C 15  s      Cor( 1s)     1.99994     -10.55936
 198    C 15  s      Val( 2s)     0.68461      -0.23216
 199    C 15  s      Ryd( 3s)     0.00636       0.39262
 200    C 15  px     Val( 2p)     0.80495      -0.18791
 201    C 15  px     Ryd( 3p)     0.00822       0.50633
 202    C 15  py     Val( 2p)     0.80011      -0.26998
 203    C 15  py     Ryd( 3p)     0.00731       0.40863
 204    C 15  pz     Val( 2p)     0.75420      -0.15780
 205    C 15  pz     Ryd( 3p)     0.01532       0.47336
 206    C 15  dxy    Ryd( 3d)     0.00183       1.96355
 207    C 15  dxz    Ryd( 3d)     0.00376       2.20499
 208    C 15  dyz    Ryd( 3d)     0.00372       2.01628
 209    C 15  dx2y2  Ryd( 3d)     0.00193       1.89987
 210    C 15  dz2    Ryd( 3d)     0.00311       2.12052

 211    O 16  s      Cor( 1s)     1.99995     -19.37711
 212    O 16  s      Val( 2s)     1.68694      -0.83936
 213    O 16  s      Ryd( 3s)     0.00128       1.49047
 214    O 16  px     Val( 2p)     1.70789      -0.44607
 215    O 16  px     Ryd( 3p)     0.00153       1.10853
 216    O 16  py     Val( 2p)     1.55191      -0.43531
 217    O 16  py     Ryd( 3p)     0.00102       1.01282
 218    O 16  pz     Val( 2p)     1.56771      -0.46752
 219    O 16  pz     Ryd( 3p)     0.00064       0.94279
 220    O 16  dxy    Ryd( 3d)     0.00061       2.55044
 221    O 16  dxz    Ryd( 3d)     0.00267       2.85729
 222    O 16  dyz    Ryd( 3d)     0.00252       2.74834
 223    O 16  dx2y2  Ryd( 3d)     0.00060       2.55516
 224    O 16  dz2    Ryd( 3d)     0.00328       2.92095

 225    N 17  s      Cor( 1s)     1.99994     -14.60919
 226    N 17  s      Val( 2s)     1.28973      -0.61695
 227    N 17  s      Ryd( 3s)     0.00249       1.01889
 228    N 17  px     Val( 2p)     1.40757      -0.42815
 229    N 17  px     Ryd( 3p)     0.00184       1.05286
 230    N 17  py     Val( 2p)     1.51646      -0.44087
 231    N 17  py     Ryd( 3p)     0.00219       0.91701
 232    N 17  pz     Val( 2p)     1.47813      -0.43318
 233    N 17  pz     Ryd( 3p)     0.00190       1.00450
 234    N 17  dxy    Ryd( 3d)     0.00069       2.47414
 235    N 17  dxz    Ryd( 3d)     0.00071       2.53708
 236    N 17  dyz    Ryd( 3d)     0.00090       2.45981
 237    N 17  dx2y2  Ryd( 3d)     0.00061       2.30607
 238    N 17  dz2    Ryd( 3d)     0.00035       2.22155

 239    H 18  s      Val( 1s)     0.70398      -0.03450
 240    H 18  s      Ryd( 2s)     0.00122       0.19654
 241    H 18  px     Ryd( 2p)     0.00035       1.89327
 242    H 18  py     Ryd( 2p)     0.00037       1.86081
 243    H 18  pz     Ryd( 2p)     0.00054       1.85312

 244    H 19  s      Val( 1s)     0.72249      -0.05724
 245    H 19  s      Ryd( 2s)     0.00217       0.19407
 246    H 19  px     Ryd( 2p)     0.00039       1.90127
 247    H 19  py     Ryd( 2p)     0.00074       1.97555
 248    H 19  pz     Ryd( 2p)     0.00030       1.68197

 249    H 20  s      Val( 1s)     0.47064      -0.06151
 250    H 20  s      Ryd( 2s)     0.00534       0.52416
 251    H 20  px     Ryd( 2p)     0.00067       2.00965
 252    H 20  py     Ryd( 2p)     0.00058       1.81324
 253    H 20  pz     Ryd( 2p)     0.00069       1.87408

 254    H 21  s      Val( 1s)     0.74394      -0.05264
 255    H 21  s      Ryd( 2s)     0.00316       0.20777
 256    H 21  px     Ryd( 2p)     0.00034       1.83225
 257    H 21  py     Ryd( 2p)     0.00061       1.88120
 258    H 21  pz     Ryd( 2p)     0.00080       1.88079

 259    H 22  s      Val( 1s)     0.73018      -0.03440
 260    H 22  s      Ryd( 2s)     0.00220       0.19947
 261    H 22  px     Ryd( 2p)     0.00052       1.90279
 262    H 22  py     Ryd( 2p)     0.00013       1.74865
 263    H 22  pz     Ryd( 2p)     0.00083       1.94937

 264    H 23  s      Val( 1s)     0.77434      -0.06020
 265    H 23  s      Ryd( 2s)     0.00237       0.21619
 266    H 23  px     Ryd( 2p)     0.00011       1.68541
 267    H 23  py     Ryd( 2p)     0.00090       2.10955
 268    H 23  pz     Ryd( 2p)     0.00027       1.74003

 269    H 24  s      Val( 1s)     0.76930      -0.06839
 270    H 24  s      Ryd( 2s)     0.00157       0.21647
 271    H 24  px     Ryd( 2p)     0.00089       2.10846
 272    H 24  py     Ryd( 2p)     0.00011       1.66813
 273    H 24  pz     Ryd( 2p)     0.00032       1.74500

 274    H 25  s      Val( 1s)     0.48128      -0.01583
 275    H 25  s      Ryd( 2s)     0.00125       0.28489
 276    H 25  px     Ryd( 2p)     0.00067       1.67838
 277    H 25  py     Ryd( 2p)     0.00135       1.85063
 278    H 25  pz     Ryd( 2p)     0.00187       2.17700

 279    H 26  s      Val( 1s)     0.76030      -0.04543
 280    H 26  s      Ryd( 2s)     0.00199       0.21884
 281    H 26  px     Ryd( 2p)     0.00054       1.91270
 282    H 26  py     Ryd( 2p)     0.00013       1.70379
 283    H 26  pz     Ryd( 2p)     0.00076       1.99814

 284    H 27  s      Val( 1s)     0.49570       0.00410
 285    H 27  s      Ryd( 2s)     0.00088       0.29736
 286    H 27  px     Ryd( 2p)     0.00206       2.44791
 287    H 27  py     Ryd( 2p)     0.00107       1.66428
 288    H 27  pz     Ryd( 2p)     0.00102       1.64513

 289    H 28  s      Val( 1s)     0.73218      -0.02710
 290    H 28  s      Ryd( 2s)     0.00313       0.31346
 291    H 28  px     Ryd( 2p)     0.00012       1.70959
 292    H 28  py     Ryd( 2p)     0.00019       1.80286
 293    H 28  pz     Ryd( 2p)     0.00133       2.19740

 294    H 29  s      Val( 1s)     0.49970       0.02066
 295    H 29  s      Ryd( 2s)     0.00311       0.34633
 296    H 29  px     Ryd( 2p)     0.00154       1.91841
 297    H 29  py     Ryd( 2p)     0.00118       1.84303
 298    H 29  pz     Ryd( 2p)     0.00167       2.08212

 299    H 30  s      Val( 1s)     0.52247      -0.02088
 300    H 30  s      Ryd( 2s)     0.00339       0.28182
 301    H 30  px     Ryd( 2p)     0.00055       1.86559
 302    H 30  py     Ryd( 2p)     0.00096       1.89278
 303    H 30  pz     Ryd( 2p)     0.00053       1.81265


 Summary of Natural Population Analysis:

                                     Natural Population
             Natural    ---------------------------------------------
  Atom No    Charge        Core      Valence    Rydberg      Total
 --------------------------------------------------------------------
    O  1   -0.49441      1.99995     6.47998    0.01448     8.49441
    C  2    0.69904      1.99995     3.25776    0.04325     5.30096
    C  3   -0.29218      1.99995     4.27645    0.01578     6.29218
    C  4    0.01166      1.99994     3.96604    0.02236     5.98834
    N  5   -0.64580      1.99994     5.63499    0.01087     7.64580
    C  6    0.31158      1.99994     3.65163    0.03685     5.68842
    O  7   -0.59425      1.99995     6.58217    0.01213     8.59425
    C  8    0.04979      1.99994     3.92389    0.02638     5.95021
    C  9   -0.08682      1.99994     4.06904    0.01784     6.08682
    O 10   -0.79263      1.99996     6.78162    0.01105     8.79263
    C 11    0.07752      1.99994     3.89654    0.02600     5.92248
    O 12   -0.76846      1.99995     6.75491    0.01360     8.76846
    C 13    0.05534      1.99994     3.91375    0.03096     5.94466
    O 14   -0.73667      1.99995     6.72312    0.01359     8.73667
    C 15    0.90465      1.99994     3.04386    0.05155     5.09535
    O 16   -0.52857      1.99995     6.51446    0.01416     8.52857
    N 17   -0.70353      1.99994     5.69190    0.01169     7.70353
    H 18    0.29354      0.00000     0.70398    0.00248     0.70646
    H 19    0.27391      0.00000     0.72249    0.00360     0.72609
    H 20    0.52208      0.00000     0.47064    0.00728     0.47792
    H 21    0.25115      0.00000     0.74394    0.00491     0.74885
    H 22    0.26614      0.00000     0.73018    0.00368     0.73386
    H 23    0.22201      0.00000     0.77434    0.00365     0.77799
    H 24    0.22781      0.00000     0.76930    0.00289     0.77219
    H 25    0.51359      0.00000     0.48128    0.00513     0.48641
    H 26    0.23628      0.00000     0.76030    0.00342     0.76372
    H 27    0.49927      0.00000     0.49570    0.00503     0.50073
    H 28    0.26305      0.00000     0.73218    0.00477     0.73695
    H 29    0.49279      0.00000     0.49970    0.00750     0.50721
    H 30    0.47210      0.00000     0.52247    0.00543     0.52790
 ====================================================================
 * Total *  1.00000     33.99910    93.56861    0.43229   128.00000

                                 Natural Population
 ---------------------------------------------------------
   Core                      33.99910 ( 99.9974% of   34)
   Valence                   93.56861 ( 99.5411% of   94)
   Natural Minimal Basis    127.56771 ( 99.6623% of  128)
   Natural Rydberg Basis      0.43229 (  0.3377% of  128)
 ---------------------------------------------------------

    Atom No         Natural Electron Configuration
 ----------------------------------------------------------------------------
      O  1      [core]2s( 1.69)2p( 4.79)3d( 0.01)
      C  2      [core]2s( 0.75)2p( 2.50)3p( 0.03)3d( 0.01)
      C  3      [core]2s( 1.00)2p( 3.27)3p( 0.01)
      C  4      [core]2s( 0.94)2p( 3.03)3p( 0.02)
      N  5      [core]2s( 1.32)2p( 4.32)3p( 0.01)
      C  6      [core]2s( 0.95)2p( 2.70)3s( 0.01)3p( 0.02)3d( 0.01)
      O  7      [core]2s( 1.59)2p( 4.99)3p( 0.01)3d( 0.01)
      C  8      [core]2s( 0.96)2p( 2.97)3p( 0.02)3d( 0.01)
      C  9      [core]2s( 1.01)2p( 3.05)3p( 0.01)3d( 0.01)
      O 10      [core]2s( 1.66)2p( 5.12)3p( 0.01)
      C 11      [core]2s( 0.93)2p( 2.96)3p( 0.02)3d( 0.01)
      O 12      [core]2s( 1.66)2p( 5.09)3p( 0.01)3d( 0.01)
      C 13      [core]2s( 0.92)2p( 2.99)3p( 0.02)3d( 0.01)
      O 14      [core]2s( 1.65)2p( 5.07)3p( 0.01)3d( 0.01)
      C 15      [core]2s( 0.68)2p( 2.36)3s( 0.01)3p( 0.03)3d( 0.01)
      O 16      [core]2s( 1.69)2p( 4.83)3d( 0.01)
      N 17      [core]2s( 1.29)2p( 4.40)3p( 0.01)
      H 18            1s( 0.70)
      H 19            1s( 0.72)
      H 20            1s( 0.47)2s( 0.01)
      H 21            1s( 0.74)
      H 22            1s( 0.73)
      H 23            1s( 0.77)
      H 24            1s( 0.77)
      H 25            1s( 0.48)
      H 26            1s( 0.76)
      H 27            1s( 0.50)
      H 28            1s( 0.73)
      H 29            1s( 0.50)
      H 30            1s( 0.52)


 NATURAL BOND ORBITAL ANALYSIS:

                            Occupancies       Lewis Structure    Low   High
         Max    Occ     -------------------  -----------------   occ   occ
  Cycle  Ctr   Thresh    Lewis   non-Lewis     CR  BD  nC  LP    (L)   (NL)
 ============================================================================
    1     2     1.90   123.97646   4.02354     17  33   0  14     5      6
    2     2     1.89   123.97646   4.02354     17  33   0  14     5      6
    3     2     1.88   123.97646   4.02354     17  33   0  14     5      6
    4     2     1.87   124.48446   3.51554     17  33   0  14     4      6
    5     2     1.84   125.50828   2.49172     17  34   0  13     2      5
    6     2     1.81   126.04702   1.95298     17  34   0  13     1      5
    7     2     1.79   126.04702   1.95298     17  34   0  13     1      5
    8     2     1.63   126.05013   1.94987     17  34   0  13     0      4
    9     2     1.61   126.05013   1.94987     17  34   0  13     0      4
   10     2     1.59   126.05013   1.94987     17  34   0  13     0      4
   11     2     1.57   125.64957   2.35043     17  33   0  14     0      5
   12     2     1.55   125.64957   2.35043     17  33   0  14     0      5
   13     2     1.53   125.64957   2.35043     17  33   0  14     0      5
   14     2     1.52   125.64957   2.35043     17  33   0  14     0      5
   15     2     1.51   125.17207   2.82793     17  32   0  15     0      6
   16     2     1.50   124.69348   3.30652     17  31   0  16     0      7
   17     2     1.63   126.05013   1.94987     17  34   0  13     0      4
 ----------------------------------------------------------------------------

 Structure accepted: No low occupancy Lewis orbitals

 -------------------------------------------------------
   Core                     33.99910 ( 99.997% of  34)
   Valence Lewis            92.05103 ( 97.927% of  94)
  ==================      =============================
   Total Lewis             126.05013 ( 98.477% of 128)
  -----------------------------------------------------
   Valence non-Lewis         1.66742 (  1.303% of 128)
   Rydberg non-Lewis         0.28245 (  0.221% of 128)
  ==================      =============================
   Total non-Lewis           1.94987 (  1.523% of 128)
 -------------------------------------------------------


     (Occupancy)   Bond orbital / Coefficients / Hybrids
 ------------------ Lewis ------------------------------------------------------
   1. (1.99995) CR ( 1) O  1            s(100.00%)
                                         1.0000  0.0000  0.0000  0.0000  0.0000
                                         0.0000  0.0000  0.0000  0.0000  0.0000
                                         0.0000  0.0000  0.0000  0.0000
   2. (1.99995) CR ( 1) C  2            s(100.00%)
                                         1.0000  0.0000  0.0000  0.0000  0.0000
                                         0.0000  0.0000  0.0000  0.0000  0.0000
                                         0.0000  0.0000  0.0000  0.0000
   3. (1.99995) CR ( 1) C  3            s(100.00%)
                                         1.0000  0.0000  0.0000  0.0000  0.0000
                                         0.0000  0.0000  0.0000  0.0000  0.0000
                                         0.0000  0.0000  0.0000  0.0000
   4. (1.99994) CR ( 1) C  4            s(100.00%)
                                         1.0000  0.0000  0.0000  0.0000  0.0000
                                         0.0000  0.0000  0.0000  0.0000  0.0000
                                         0.0000  0.0000  0.0000  0.0000
   5. (1.99994) CR ( 1) N  5            s(100.00%)
                                         1.0000  0.0000  0.0000  0.0000  0.0000
                                         0.0000  0.0000  0.0000  0.0000  0.0000
                                         0.0000  0.0000  0.0000  0.0000
   6. (1.99994) CR ( 1) C  6            s(100.00%)
                                         1.0000  0.0000  0.0000  0.0000  0.0000
                                         0.0000  0.0000  0.0000  0.0000  0.0000
                                         0.0000  0.0000  0.0000  0.0000
   7. (1.99995) CR ( 1) O  7            s(100.00%)
                                         1.0000  0.0000  0.0000  0.0000  0.0000
                                         0.0000  0.0000  0.0000  0.0000  0.0000
                                         0.0000  0.0000  0.0000  0.0000
   8. (1.99994) CR ( 1) C  8            s(100.00%)
                                         1.0000  0.0000  0.0000  0.0000  0.0000
                                         0.0000  0.0000  0.0000  0.0000  0.0000
                                         0.0000  0.0000  0.0000  0.0000
   9. (1.99994) CR ( 1) C  9            s(100.00%)
                                         1.0000  0.0000  0.0000  0.0000  0.0000
                                         0.0000  0.0000  0.0000  0.0000  0.0000
                                         0.0000  0.0000  0.0000  0.0000
  10. (1.99996) CR ( 1) O 10            s(100.00%)
                                         1.0000  0.0000  0.0000  0.0000  0.0000
                                         0.0000  0.0000  0.0000  0.0000  0.0000
                                         0.0000  0.0000  0.0000  0.0000
  11. (1.99994) CR ( 1) C 11            s(100.00%)
                                         1.0000  0.0000  0.0000  0.0000  0.0000
                                         0.0000  0.0000  0.0000  0.0000  0.0000
                                         0.0000  0.0000  0.0000  0.0000
  12. (1.99995) CR ( 1) O 12            s(100.00%)
                                         1.0000  0.0000  0.0000  0.0000  0.0000
                                         0.0000  0.0000  0.0000  0.0000  0.0000
                                         0.0000  0.0000  0.0000  0.0000
  13. (1.99994) CR ( 1) C 13            s(100.00%)
                                         1.0000  0.0000  0.0000  0.0000  0.0000
                                         0.0000  0.0000  0.0000  0.0000  0.0000
                                         0.0000  0.0000  0.0000  0.0000
  14. (1.99995) CR ( 1) O 14            s(100.00%)
                                         1.0000  0.0000  0.0000  0.0000  0.0000
                                         0.0000  0.0000  0.0000  0.0000  0.0000
                                         0.0000  0.0000  0.0000  0.0000
  15. (1.99994) CR ( 1) C 15            s(100.00%)
                                         1.0000  0.0000  0.0000  0.0000  0.0000
                                         0.0000  0.0000  0.0000  0.0000  0.0000
                                         0.0000  0.0000  0.0000  0.0000
  16. (1.99995) CR ( 1) O 16            s(100.00%)
                                         1.0000  0.0000  0.0000  0.0000  0.0000
                                         0.0000  0.0000  0.0000  0.0000  0.0000
                                         0.0000  0.0000  0.0000  0.0000
  17. (1.99994) CR ( 1) N 17            s(100.00%)
                                         1.0000  0.0000  0.0000  0.0000  0.0000
                                         0.0000  0.0000  0.0000  0.0000  0.0000
                                         0.0000  0.0000  0.0000  0.0000
  18. (1.97802) LP ( 1) O  1            s( 56.37%)p 0.77( 43.59%)d 0.00(  0.04%)
                                         0.0000  0.7507 -0.0137 -0.5948 -0.0008
                                         0.2197  0.0000 -0.1840 -0.0007  0.0102
                                        -0.0097  0.0015 -0.0118  0.0075
  19. (1.84872) LP ( 2) O  1            s(  0.01%)p 1.00( 99.85%)d 0.00(  0.14%)
                                         0.0000  0.0086  0.0010 -0.0601  0.0013
                                        -0.7462  0.0104 -0.6617  0.0099 -0.0249
                                        -0.0231 -0.0006 -0.0109 -0.0127
  20. (1.96265) LP ( 1) O  7            s( 37.03%)p 1.70( 62.92%)d 0.00(  0.05%)
                                         0.0000  0.6085 -0.0012 -0.2191  0.0049
                                        -0.4669  0.0012 -0.6026 -0.0008 -0.0056
                                        -0.0064 -0.0165  0.0066 -0.0106
  21. (1.87021) LP ( 2) O  7            s(  0.01%)p99.99( 99.92%)d 7.03(  0.07%)
                                         0.0000  0.0102  0.0014  0.3321 -0.0026
                                         0.6886 -0.0023 -0.6439  0.0013  0.0075
                                         0.0053  0.0044 -0.0106 -0.0229
  22. (1.96773) LP ( 1) O 10            s( 10.12%)p 8.88( 89.85%)d 0.00(  0.04%)
                                         0.0000  0.3181 -0.0054  0.2055 -0.0035
                                         0.8579 -0.0097  0.3466  0.0015  0.0079
                                         0.0049 -0.0042  0.0144  0.0065
  23. (1.92364) LP ( 2) O 10            s( 35.58%)p 1.81( 64.41%)d 0.00(  0.02%)
                                         0.0000  0.5963 -0.0122 -0.7605  0.0133
                                         0.0613 -0.0033 -0.2483  0.0101  0.0080
                                        -0.0041  0.0001 -0.0068  0.0064
  24. (1.97452) LP ( 1) O 12            s( 41.03%)p 1.44( 58.93%)d 0.00(  0.04%)
                                         0.0000  0.6405 -0.0108 -0.4339  0.0102
                                         0.1289  0.0019 -0.6199  0.0001  0.0068
                                        -0.0163  0.0062 -0.0024 -0.0077
  25. (1.94090) LP ( 2) O 12            s(  3.74%)p25.74( 96.21%)d 0.01(  0.05%)
                                         0.0000  0.1933 -0.0019 -0.1354  0.0052
[...]
                                                     230(v),119(v),118(v),75(g)
   39. BD ( 1) C  4- H 19       1.97912    -0.69373  67(v),75(v),69(g),117(v)
   40. BD ( 1) N  5- C  6       1.95008    -0.80509  96(v),70(v),72(g),76(g)
                                                     128(v),75(g),80(v),126(v)
                                                     127(v),74(g),69(v)
   41. BD ( 1) N  5- C 15       1.98038    -0.88452  98(v),126(v),73(v),77(v)
                                                     72(g),234(v),76(g),144(v)
                                                     147(v),74(g)
   42. BD ( 1) N  5- H 20       1.96605    -0.80083  97(v),70(v),69(v),79(v)
                                                     96(v),127(v),146(v),225(v)
                                                     72(g),74(g),75(g),77(v)
                                                     95(v),126(v)
   43. BD ( 1) C  6- O  7       1.99013    -0.98534  75(v),162(v),164(v),83(v)
                                                     92(v)
   44. BD ( 1) C  6- C 13       1.98147    -0.73669  90(v),216(v),72(v),79(g)
                                                     190(v),162(r)
   45. BD ( 1) C  6- H 21       1.97981    -0.68282  80(v),92(v),76(v),93(v)
                                                     153(v)
   46. BD ( 1) O  7- C  8       1.98407    -0.90229  79(v),90(v),86(v),146(v)
                                                     78(v)
   47. BD ( 1) C  8- C  9       1.97960    -0.74055  88(v),87(v),189(v),153(v)
                                                     77(v),180(v),83(g),82(g)
   48. BD ( 1) C  8- C 11       1.97773    -0.72354  92(v),171(v),85(v),198(v)
                                                     81(g),83(g),208(v),89(g)
   49. BD ( 1) C  8- H 22       1.96716    -0.64593  84(v),77(v),89(v),88(v)
   50. BD ( 1) C  9- O 10       1.99443    -0.93584  83(v)
   51. BD ( 1) C  9- H 23       1.98357    -0.64830  82(v),80(v),180(v)
   52. BD ( 1) C  9- H 24       1.97766    -0.65405  80(v)
   53. BD ( 1) O 10- H 25       1.99034    -0.86649  81(v),162(r)
   54. BD ( 1) C 11- O 12       1.99139    -0.93222  81(v),93(v),92(v)
   55. BD ( 1) C 11- C 13       1.95991    -0.70513  74(v),80(v),83(v),91(v)
                                                     77(v),199(v),93(g),79(v)
                                                     82(g),90(g),217(v),78(g)
                                                     198(v),163(v),162(v)
   56. BD ( 1) C 11- H 26       1.97794    -0.64900  80(v),78(v)
   57. BD ( 1) O 12- H 27       1.98807    -0.83313  89(v),90(v)
   58. BD ( 1) C 13- O 14       1.99150    -0.93198  77(v),82(v),88(v)
   59. BD ( 1) C 13- H 28       1.96570    -0.63678  88(v),74(v),94(v),79(v)
                                                     217(v)
   60. BD ( 1) O 14- H 29       1.98604    -0.80045  93(v),207(v),89(v),210(v)
   61. BD ( 1) C 15- O 16       1.99442    -1.14315  97(g),68(v),72(v)
   62. BD ( 2) C 15- O 16       1.98732    -0.58895  74(v),96(g),244(v)
   63. BD ( 1) C 15- N 17       1.98780    -0.96193  65(v),68(g),95(g),112(v)
                                                     76(v),98(g),234(v)
   64. BD ( 1) N 17- H 30       1.97602    -0.79054  75(v),67(v),65(v),108(v)
                                                     225(v),95(v),97(g)
 ------ non-Lewis ----------------------------------
   65. BD*( 1) O  1- C  2       0.00945     0.51174
   66. BD*( 2) O  1- C  2       0.20476    -0.12478
   67. BD*( 1) C  2- C  3       0.06288     0.29904
   68. BD*( 1) C  2- N 17       0.09886     0.24894
   69. BD*( 1) C  3- C  4       0.01279     0.50071
   70. BD*( 2) C  3- C  4       0.05584    -0.12448
   71. BD*( 1) C  3- H 18       0.01029     0.34590
   72. BD*( 1) C  4- N  5       0.03179     0.16749
   73. BD*( 1) C  4- H 19       0.01513     0.32898
   74. BD*( 1) N  5- C  6       0.11008     0.01255
   75. BD*( 1) N  5- C 15       0.13278     0.09742
   76. BD*( 1) N  5- H 20       0.07512     0.19174
   77. BD*( 1) C  6- O  7       0.02249     0.20148
   78. BD*( 1) C  6- C 13       0.06061     0.20526
   79. BD*( 1) C  6- H 21       0.02839     0.32961
   80. BD*( 1) O  7- C  8       0.04173     0.12772
   81. BD*( 1) C  8- C  9       0.03158     0.25178
   82. BD*( 1) C  8- C 11       0.04672     0.23591
   83. BD*( 1) C  8- H 22       0.01942     0.34527
   84. BD*( 1) C  9- O 10       0.01629     0.13905
   85. BD*( 1) C  9- H 23       0.02303     0.32185
   86. BD*( 1) C  9- H 24       0.01867     0.31612
   87. BD*( 1) O 10- H 25       0.00601     0.29914
   88. BD*( 1) C 11- O 12       0.02117     0.18050
   89. BD*( 1) C 11- C 13       0.05142     0.23201
   90. BD*( 1) C 11- H 26       0.02646     0.33796
   91. BD*( 1) O 12- H 27       0.00621     0.32535
   92. BD*( 1) C 13- O 14       0.01635     0.22962
   93. BD*( 1) C 13- H 28       0.02994     0.34959
   94. BD*( 1) O 14- H 29       0.02310     0.33576
   95. BD*( 1) C 15- O 16       0.01717     0.48590
   96. BD*( 2) C 15- O 16       0.25610    -0.15056
   97. BD*( 1) C 15- N 17       0.07092     0.31566
   98. BD*( 1) N 17- H 30       0.01387     0.29198
   99. RY ( 1) O  1             0.00247     1.08636
  100. RY ( 2) O  1             0.00062     0.96452
  101. RY ( 3) O  1             0.00026     1.43547
  102. RY ( 4) O  1             0.00007     0.97050
  103. RY ( 5) O  1             0.00001     3.04370
  104. RY ( 6) O  1             0.00001     2.50919
  105. RY ( 7) O  1             0.00001     2.79977
  106. RY ( 8) O  1             0.00000     2.68044
  107. RY ( 9) O  1             0.00000     2.70405
  108. RY ( 1) C  2             0.01578     0.44789
  109. RY ( 2) C  2             0.01007     1.43944
  110. RY ( 3) C  2             0.00378     1.63470
  111. RY ( 4) C  2             0.00216     0.93852
  112. RY ( 5) C  2             0.00202     1.16593
  113. RY ( 6) C  2             0.00080     1.64060
  114. RY ( 7) C  2             0.00042     1.68132
  115. RY ( 8) C  2             0.00023     0.99130
  116. RY ( 9) C  2             0.00001     2.01640
  117. RY ( 1) C  3             0.00403     0.93837
  118. RY ( 2) C  3             0.00254     0.57076
  119. RY ( 3) C  3             0.00201     0.51499
  120. RY ( 4) C  3             0.00073     0.80932
  121. RY ( 5) C  3             0.00012     1.64905
  122. RY ( 6) C  3             0.00007     1.90732
  123. RY ( 7) C  3             0.00004     1.72022
  124. RY ( 8) C  3             0.00003     2.15098
  125. RY ( 9) C  3             0.00001     1.99680
  126. RY ( 1) C  4             0.00597     0.78855
  127. RY ( 2) C  4             0.00394     0.72749
  128. RY ( 3) C  4             0.00314     0.52490
  129. RY ( 4) C  4             0.00113     0.55130
  130. RY ( 5) C  4             0.00035     2.07656
  131. RY ( 6) C  4             0.00014     1.73098
  132. RY ( 7) C  4             0.00006     2.13026
  133. RY ( 8) C  4             0.00003     1.79151
  134. RY ( 9) C  4             0.00002     1.98519
  135. RY ( 1) N  5             0.00278     1.19836
  136. RY ( 2) N  5             0.00196     1.10897
  137. RY ( 3) N  5             0.00108     1.19473
  138. RY ( 4) N  5             0.00076     1.77115
  139. RY ( 5) N  5             0.00055     1.88162
  140. RY ( 6) N  5             0.00032     2.22541
  141. RY ( 7) N  5             0.00025     2.31540
  142. RY ( 8) N  5             0.00020     2.46516
  143. RY ( 9) N  5             0.00012     1.92509
  144. RY ( 1) C  6             0.00826     0.60441
  145. RY ( 2) C  6             0.00578     0.90673
  146. RY ( 3) C  6             0.00485     0.80959
  147. RY ( 4) C  6             0.00433     0.84112
  148. RY ( 5) C  6             0.00153     1.67531
  149. RY ( 6) C  6             0.00101     1.80937
  150. RY ( 7) C  6             0.00060     2.10009
  151. RY ( 8) C  6             0.00036     2.05202
  152. RY ( 9) C  6             0.00013     2.02015
  153. RY ( 1) O  7             0.00301     1.15304
  154. RY ( 2) O  7             0.00205     1.16321
  155. RY ( 3) O  7             0.00058     1.48249
  156. RY ( 4) O  7             0.00025     1.93948
  157. RY ( 5) O  7             0.00015     2.73136
  158. RY ( 6) O  7             0.00007     2.51138
  159. RY ( 7) O  7             0.00006     2.54337
  160. RY ( 8) O  7             0.00002     2.63315
  161. RY ( 9) O  7             0.00001     2.71899
  162. RY ( 1) C  8             0.00546     0.89432
  163. RY ( 2) C  8             0.00404     0.62215
  164. RY ( 3) C  8             0.00257     0.59944
  165. RY ( 4) C  8             0.00211     1.36532
  166. RY ( 5) C  8             0.00109     1.54121
  167. RY ( 6) C  8             0.00068     1.95696
  168. RY ( 7) C  8             0.00046     1.75905
  169. RY ( 8) C  8             0.00026     1.96589
  170. RY ( 9) C  8             0.00009     2.08346
  171. RY ( 1) C  9             0.00385     0.55070
  172. RY ( 2) C  9             0.00272     0.67693
  173. RY ( 3) C  9             0.00163     1.38288
  174. RY ( 4) C  9             0.00120     1.77493
  175. RY ( 5) C  9             0.00064     1.20885
  176. RY ( 6) C  9             0.00029     1.69311
  177. RY ( 7) C  9             0.00013     1.77077
  178. RY ( 8) C  9             0.00004     1.37556
  179. RY ( 9) C  9             0.00001     1.93637
  180. RY ( 1) O 10             0.00181     1.15724
  181. RY ( 2) O 10             0.00142     1.33557
  182. RY ( 3) O 10             0.00042     1.39554
  183. RY ( 4) O 10             0.00017     1.31925
  184. RY ( 5) O 10             0.00007     2.53008
  185. RY ( 6) O 10             0.00002     2.53671
  186. RY ( 7) O 10             0.00001     2.99177
  187. RY ( 8) O 10             0.00001     2.59728
  188. RY ( 9) O 10             0.00000     2.74328
  189. RY ( 1) C 11             0.00676     0.77797
  190. RY ( 2) C 11             0.00397     0.88941
  191. RY ( 3) C 11             0.00237     1.03217
  192. RY ( 4) C 11             0.00172     1.12471
  193. RY ( 5) C 11             0.00092     1.39645
  194. RY ( 6) C 11             0.00072     1.67999
  195. RY ( 7) C 11             0.00056     1.99610
  196. RY ( 8) C 11             0.00022     1.85179
  197. RY ( 9) C 11             0.00012     2.05281
  198. RY ( 1) O 12             0.00280     1.21465
  199. RY ( 2) O 12             0.00222     1.15756
  200. RY ( 3) O 12             0.00017     1.62472
  201. RY ( 4) O 12             0.00010     1.91353
  202. RY ( 5) O 12             0.00002     2.62226
  203. RY ( 6) O 12             0.00001     2.14175
  204. RY ( 7) O 12             0.00001     2.60529
  205. RY ( 8) O 12             0.00001     2.83586
  206. RY ( 9) O 12             0.00000     2.61651
  207. RY ( 1) C 13             0.00675     0.60066
  208. RY ( 2) C 13             0.00526     0.96307
  209. RY ( 3) C 13             0.00455     1.07560
  210. RY ( 4) C 13             0.00152     1.86938
  211. RY ( 5) C 13             0.00108     0.97819
  212. RY ( 6) C 13             0.00096     1.42872
  213. RY ( 7) C 13             0.00046     2.02771
  214. RY ( 8) C 13             0.00014     2.02607
  215. RY ( 9) C 13             0.00013     2.02972
  216. RY ( 1) O 14             0.00250     1.03215
  217. RY ( 2) O 14             0.00170     1.20792
  218. RY ( 3) O 14             0.00017     1.59220
  219. RY ( 4) O 14             0.00006     1.98736
  220. RY ( 5) O 14             0.00002     1.84262
  221. RY ( 6) O 14             0.00001     2.74710
  222. RY ( 7) O 14             0.00001     2.91834
  223. RY ( 8) O 14             0.00000     2.80326
  224. RY ( 9) O 14             0.00000     2.88580
  225. RY ( 1) C 15             0.01792     0.48917
  226. RY ( 2) C 15             0.01341     1.17474
  227. RY ( 3) C 15             0.00577     1.49648
  228. RY ( 4) C 15             0.00331     0.64390
  229. RY ( 5) C 15             0.00307     0.99545
  230. RY ( 6) C 15             0.00206     1.27879
  231. RY ( 7) C 15             0.00085     2.19957
  232. RY ( 8) C 15             0.00024     1.66720
  233. RY ( 9) C 15             0.00003     1.99035
  234. RY ( 1) O 16             0.00156     1.11524
  235. RY ( 2) O 16             0.00086     1.00600
  236. RY ( 3) O 16             0.00028     1.43733
  237. RY ( 4) O 16             0.00010     1.03532
  238. RY ( 5) O 16             0.00002     2.95339
  239. RY ( 6) O 16             0.00001     2.81974
  240. RY ( 7) O 16             0.00001     2.67326
  241. RY ( 8) O 16             0.00000     2.57377
  242. RY ( 9) O 16             0.00000     2.56614
  243. RY ( 1) N 17             0.00327     1.10301
  244. RY ( 2) N 17             0.00182     0.77236
  245. RY ( 3) N 17             0.00156     1.28420
  246. RY ( 4) N 17             0.00070     1.34699
  247. RY ( 5) N 17             0.00030     2.14749
  248. RY ( 6) N 17             0.00020     2.34518
  249. RY ( 7) N 17             0.00004     2.33621
  250. RY ( 8) N 17             0.00002     2.22147
  251. RY ( 9) N 17             0.00001     2.42520
  252. RY ( 1) H 18             0.00123     0.22093
  253. RY ( 2) H 18             0.00011     1.52738
  254. RY ( 3) H 18             0.00006     2.13361
  255. RY ( 4) H 18             0.00003     1.90979
  256. RY ( 1) H 19             0.00219     0.20801
  257. RY ( 2) H 19             0.00013     1.60491
  258. RY ( 3) H 19             0.00007     1.86362
  259. RY ( 4) H 19             0.00003     2.06369
  260. RY ( 1) H 20             0.00605     0.61606
  261. RY ( 2) H 20             0.00026     2.15211
  262. RY ( 3) H 20             0.00016     1.67550
  263. RY ( 4) H 20             0.00011     1.74416
  264. RY ( 1) H 21             0.00322     0.21890
  265. RY ( 2) H 21             0.00012     1.72617
  266. RY ( 3) H 21             0.00006     1.97428
  267. RY ( 4) H 21             0.00003     1.86936
  268. RY ( 1) H 22             0.00221     0.20181
  269. RY ( 2) H 22             0.00009     1.76289
  270. RY ( 3) H 22             0.00008     1.78514
  271. RY ( 4) H 22             0.00002     2.03818
  272. RY ( 1) H 23             0.00239     0.22373
  273. RY ( 2) H 23             0.00009     1.74180
  274. RY ( 3) H 23             0.00008     1.62497
  275. RY ( 4) H 23             0.00001     2.14904
  276. RY ( 1) H 24             0.00159     0.23215
  277. RY ( 2) H 24             0.00011     1.71984
  278. RY ( 3) H 24             0.00010     1.61284
  279. RY ( 4) H 24             0.00001     2.16197
  280. RY ( 1) H 25             0.00130     0.41024
  281. RY ( 2) H 25             0.00113     1.53879
  282. RY ( 3) H 25             0.00056     1.68795
  283. RY ( 4) H 25             0.00001     2.32017
  284. RY ( 1) H 26             0.00201     0.22415
  285. RY ( 2) H 26             0.00012     1.75267
  286. RY ( 3) H 26             0.00009     1.65466
  287. RY ( 4) H 26             0.00002     2.18983
  288. RY ( 1) H 27             0.00126     1.54291
  289. RY ( 2) H 27             0.00099     0.70245
  290. RY ( 3) H 27             0.00068     1.52579
  291. RY ( 4) H 27             0.00001     2.25092
  292. RY ( 1) H 28             0.00319     0.32731
  293. RY ( 2) H 28             0.00015     1.82515
  294. RY ( 3) H 28             0.00013     2.05485
  295. RY ( 4) H 28             0.00005     1.80315
  296. RY ( 1) H 29             0.00345     0.52364
  297. RY ( 2) H 29             0.00128     1.59638
  298. RY ( 3) H 29             0.00076     1.82169
  299. RY ( 4) H 29             0.00003     2.21165
  300. RY ( 1) H 30             0.00345     0.31908
  301. RY ( 2) H 30             0.00023     1.53238
  302. RY ( 3) H 30             0.00010     1.77022
  303. RY ( 4) H 30             0.00002     2.20623
          -------------------------------
                 Total Lewis  126.05013  ( 98.4767%)
           Valence non-Lewis    1.66742  (  1.3027%)
           Rydberg non-Lewis    0.28245  (  0.2207%)
          -------------------------------
               Total unit  1  128.00000  (100.0000%)
              Charge unit  1    1.00000

 $CHOOSE
   LONE 1 2 7 2 10 2 12 2 14 2 16 2 17 1 END
   BOND D 1 2 S 2 3 S 2 17 D 3 4 S 3 18 S 4 5 S 4 19 S 5 6 S 5 15 S 5 20 S 6 7
        S 6 13 S 6 21 S 7 8 S 8 9 S 8 11 S 8 22 S 9 10 S 9 23 S 9 24 S 10 25
        S 11 12 S 11 13 S 11 26 S 12 27 S 13 14 S 13 28 S 14 29 D 15 16 S 15 17
        S 17 30 END
 $END

 NBO analysis completed in 1.79 CPU seconds (2 wall seconds)
 Maximum scratch memory used by NBO was 1065493 words (8.13 MB)
 Maximum scratch memory used by G16NBO was 148350 words (1.13 MB)

 Opening RunExU unformatted file "/home/javialra/scratch/Gau-616463.EUF"
 Read unf file /home/javialra/scratch/Gau-616463.EUF:
 Label Gaussian matrix elements                                         IVers= 2 NLab= 2 Version=ES64L-G16RevC.01
 Title NBO input                                                       
 NAtoms=    30 NBasis=   303 NBsUse=   303 ICharg=     1 Multip=     1 NE=   128 Len12L=8 Len4L=8 IOpCl= 0 ICGU=111
 GAUSSIAN SCALARS                    NI= 1 NR= 1 NTot=       1 LenBuf=    2 NRI=1 N=    1000
 NPA CHARGES                         NI= 0 NR= 1 NTot=      30 LenBuf= 4000 NRI=1 N=      30
 Recovered energy= -909.713676565     dipole=      1.916135497961     -1.937281691135      0.168266497860
 Unable to Open any file for archive entry.
 1\1\GINC-DALE\SP\RPBE1PBE\def2SVP\C9H13N2O6(1+)\JAVIALRA\19-Jun-2024\0
 \\# pbe1pbe def2svp pop=NBO7\\NBO input\\1,1\O,0,4.666031,1.360448,1.0
 61214\C,0,3.600661,0.818638,1.037647\C,0,2.59229,0.879298,2.114139\C,0
 ,1.384349,0.339622,1.971974\N,0,0.989607,-0.277876,0.724489\C,0,-0.030
 287,0.68037,-0.024218\O,0,-1.068967,0.862235,0.835751\C,0,-2.236711,0.
 167043,0.363197\C,0,-2.342786,-1.187739,1.032599\O,0,-1.141622,-1.9121
 27,0.80815\C,0,-2.065296,0.17398,-1.157443\O,0,-2.386268,1.424184,-1.6
 97777\C,0,-0.54186,0.033906,-1.332899\O,0,-0.044483,0.639741,-2.461363
 \C,0,2.095007,-0.73541,-0.171871\O,0,1.896056,-1.647856,-0.909393\N,0,
 3.220075,0.009597,-0.056254\H,0,2.882218,1.390186,3.033147\H,0,0.59137
 ,0.38128,2.718973\H,0,0.360676,-1.11005,0.896476\H,0,0.542302,1.605026
 ,-0.190526\H,0,-3.10626,0.774688,0.652846\H,0,-2.512774,-1.042472,2.11
 3188\H,0,-3.210051,-1.728316,0.618473\H,0,-1.25524,-2.843034,1.034349\
 H,0,-2.606762,-0.650615,-1.648831\H,0,-3.301321,1.448788,-1.997038\H,0
 ,-0.27268,-1.031026,-1.349042\H,0,-0.653137,1.367683,-2.671334\H,0,3.9
 55964,-0.190189,-0.734623\\Version=ES64L-G16RevC.01\State=1-A\HF=-909.
 7136766\RMSD=4.474e-09\Dipole=-2.2321429,-0.978975,1.2296727\Quadrupol
 e=11.8041075,-7.3238429,-4.4802646,2.3118284,4.853202,-5.4181047\PG=C0
 1 [X(C9H13N2O6)]\\@
 The archive entry for this job was punched.


          EVOLUTION
 IN THE BEGINNING GOD MADE MAN.
 HE WORKED THE DIRT WITH HIS HANDS.
 THEN GOD DECIDED TO GIVE MAN SCIENCE,
 MAN SHOULD BE USEFUL (LIKE AN APPLIANCE.)
 BUT SOON MAN'S KNOWLEDGE GREW TOO GREAT,
 TO THE HEADING SCIENCE HE COULDN'T RELATE
 SO GOD SAID "LETS HAVE DIFFERENT FIELDS,
 WE'LL DIVIDE THEM UP, SEE WHAT IT YIELDS."
 ENTER PHYSICS, CHEMISTRY, BIO
 THEY SPRANG UP AROUND THE NILE.
 BUT CHEMISTRY SURPASSED THE REST
 FAR AND AWAY IT WAS THE BEST.
 EXPERIMENT WAS GOD'S DECREE
 EXPERIMENT DID CHEMISTS WITH LOTS OF GLEE
 BUT SOON THEIR TESTS BEGAN TO BOG,
 THEY FOUND THEMSELVES DEEP IN A FOG.
 "GIVE US SOME HELP" THEY CRIED TO GOD.
 GOD LOOKED AROUND, THEN GAVE THE NOD.
 ENTER EINSTEIN, HEISENBERG, BOHR,
 REACTION PATHS WERE CLEAR ONCE MORE.
 WITH THEORISTS GOD SEND DIRECTION
 AND THEN HE STOPPED, HE'D MADE PERFECTION.
          -- THOMAS A. HOLME, 1981
 Job cpu time:       0 days  0 hours 30 minutes 26.3 seconds.
 Elapsed time:       0 days  0 hours  0 minutes 29.4 seconds.
 File lengths (MBytes):  RWF=     54 Int=      0 D2E=      0 Chk=      6 Scr=      1
 Normal termination of Gaussian 16 at Wed Jun 19 09:26:43 2024.
